 Entering Gaussian System, Link 0=g09
 Input=SubPc-C60_opt.gjf
 Output=SubPc-C60_opt.log
 Initial command:
 /local/isv/Gaussian/09_D01.PG/g09/l1.exe "/tmp/e1667/192129.cae-pbs2-01/Gau-30415.inp" -scrdir="/tmp/e1667/192129.cae-pbs2-01/"
 Entering Link 1 = /local/isv/Gaussian/09_D01.PG/g09/l1.exe PID=     30416.
  
 Copyright (c) 1988,1990,1992,1993,1995,1998,2003,2009,2013,
            Gaussian, Inc.  All Rights Reserved.
  
 This is part of the Gaussian(R) 09 program.  It is based on
 the Gaussian(R) 03 system (copyright 2003, Gaussian, Inc.),
 the Gaussian(R) 98 system (copyright 1998, Gaussian, Inc.),
 the Gaussian(R) 94 system (copyright 1995, Gaussian, Inc.),
 the Gaussian 92(TM) system (copyright 1992, Gaussian, Inc.),
 the Gaussian 90(TM) system (copyright 1990, Gaussian, Inc.),
 the Gaussian 88(TM) system (copyright 1988, Gaussian, Inc.),
 the Gaussian 86(TM) system (copyright 1986, Carnegie Mellon
 University), and the Gaussian 82(TM) system (copyright 1983,
 Carnegie Mellon University). Gaussian is a federally registered
 trademark of Gaussian, Inc.
  
 This software contains proprietary and confidential information,
 including trade secrets, belonging to Gaussian, Inc.
  
 This software is provided under written license and may be
 used, copied, transmitted, or stored only in accord with that
 written license.
  
 The following legend is applicable only to US Government
 contracts under FAR:
  
                    RESTRICTED RIGHTS LEGEND
  
 Use, reproduction and disclosure by the US Government is
 subject to restrictions as set forth in subparagraphs (a)
 and (c) of the Commercial Computer Software - Restricted
 Rights clause in FAR 52.227-19.
  
 Gaussian, Inc.
 340 Quinnipiac St., Bldg. 40, Wallingford CT 06492
  
  
 ---------------------------------------------------------------
 Warning -- This program may not be used in any manner that
 competes with the business of Gaussian, Inc. or will provide
 assistance to any competitor of Gaussian, Inc.  The licensee
 of this program is prohibited from giving any competitor of
 Gaussian, Inc. access to this program.  By using this program,
 the user acknowledges that Gaussian, Inc. is engaged in the
 business of creating and licensing software in the field of
 computational chemistry and represents and warrants to the
 licensee that it is not a competitor of Gaussian, Inc. and that
 it will not use this program in any manner prohibited above.
 ---------------------------------------------------------------
  

 Cite this work as:
 Gaussian 09, Revision D.01,
 M. J. Frisch, G. W. Trucks, H. B. Schlegel, G. E. Scuseria, 
 M. A. Robb, J. R. Cheeseman, G. Scalmani, V. Barone, B. Mennucci, 
 G. A. Petersson, H. Nakatsuji, M. Caricato, X. Li, H. P. Hratchian, 
 A. F. Izmaylov, J. Bloino, G. Zheng, J. L. Sonnenberg, M. Hada, 
 M. Ehara, K. Toyota, R. Fukuda, J. Hasegawa, M. Ishida, T. Nakajima, 
 Y. Honda, O. Kitao, H. Nakai, T. Vreven, J. A. Montgomery, Jr., 
 J. E. Peralta, F. Ogliaro, M. Bearpark, J. J. Heyd, E. Brothers, 
 K. N. Kudin, V. N. Staroverov, T. Keith, R. Kobayashi, J. Normand, 
 K. Raghavachari, A. Rendell, J. C. Burant, S. S. Iyengar, J. Tomasi, 
 M. Cossi, N. Rega, J. M. Millam, M. Klene, J. E. Knox, J. B. Cross, 
 V. Bakken, C. Adamo, J. Jaramillo, R. Gomperts, R. E. Stratmann, 
 O. Yazyev, A. J. Austin, R. Cammi, C. Pomelli, J. W. Ochterski, 
 R. L. Martin, K. Morokuma, V. G. Zakrzewski, G. A. Voth, 
 P. Salvador, J. J. Dannenberg, S. Dapprich, A. D. Daniels, 
 O. Farkas, J. B. Foresman, J. V. Ortiz, J. Cioslowski, 
 and D. J. Fox, Gaussian, Inc., Wallingford CT, 2013.
 
 ******************************************
 Gaussian 09:  ES64L-G09RevD.01 24-Apr-2013
                 6-Aug-2018 
 ******************************************
 %nprocshared=16
 Will use up to   16 processors via shared memory.
 %mem=4096MB
 %chk=SubPc-C60_tddft.chk
 ----------------------------------------------------------------------
 #p td CAM-B3LYP/6-31g* TD=(singlets,root=1,nstates=20) SCRF=(PCM,read)
  units=(ang,deg)
 ----------------------------------------------------------------------
 1/38=1,40=2/1;
 2/12=2,17=6,18=5,40=1/2;
 3/5=1,6=6,7=1,11=9,16=1,25=1,30=1,70=2203,72=1,74=-40/1,2,8,3;
 4//1;
 5/5=2,38=5/2;
 8/6=1,10=2,107=1,108=20/1;
 9/8=1,41=20,42=1,48=1/14;
 6/7=2,8=2,9=2,10=2/1;
 99/5=1,9=1/99;
 Leave Link    1 at Mon Aug  6 10:31:23 2018, MaxMem=   536870912 cpu:         0.6
 (Enter /local/isv/Gaussian/09_D01.PG/g09/l101.exe)
 ---------
 SubPc-C60
 ---------
 Symbolic Z-matrix:
 Charge =  0 Multiplicity = 1
 C                     2.27451   3.37706  -4.1258 
 C                     2.26305   2.17693  -4.85777 
 C                     2.8628    1.0284   -4.3645 
 C                     3.49912   1.10211  -3.1264 
 C                     2.88296   3.45572  -2.88283 
 C                     3.50889   2.3127   -2.38637 
 C                     4.08481   0.07662  -2.27989 
 N                     4.52675   0.7274   -1.16738 
 H                     1.78597   4.25387  -4.53909 
 H                     1.76464   2.14887  -5.82161 
 H                     2.83201   0.09163  -4.91064 
 H                     2.86798   4.37131  -2.30116 
 C                     4.09448   2.0178   -1.08918 
 N                     3.96188   2.66558   0.07049 
 C                     2.37141  -5.28163  -0.85146 
 C                     2.37928  -5.32202   0.55389 
 C                     2.96018  -4.30743   1.29856 
 C                     3.56129  -3.25266   0.61303 
 C                     2.94489  -4.22627  -1.54332 
 C                     3.55396  -3.21245  -0.80531 
 C                     4.12347  -1.99424   1.07523 
 N                     4.54394  -1.34637  -0.04784 
 H                     1.89507  -6.08726  -1.40131 
 H                     1.90963  -6.15844   1.06192 
 H                     2.94188  -4.31803   2.38318 
 H                     2.91412  -4.17366  -2.62644 
 B                     5.1408    0.017    -0.01219 
 C                     4.11176  -1.92995  -1.2012 
 N                     3.95847  -1.25098  -2.33937 
 C                     2.31027   1.8914    4.97701 
 C                     2.31741   3.13332   4.31648 
 C                     2.91961   3.28585   3.07793 
 C                     3.54165   2.17417   2.5103 
 C                     2.91047   0.77582   4.41526 
 C                     3.53983   0.92316   3.17937 
 C                     4.10732   1.95296   1.18985 
 N                     4.53803   0.65963   1.18743 
 H                     1.81582   1.80578   5.93952 
 H                     1.82873   3.98327   4.7824 
 H                     2.89825   4.23329   2.55009 
 H                     2.88364  -0.1913    4.90588 
 C                     4.11358  -0.05298   2.26859 
 N                     3.98522  -1.38156   2.25246 
 Cl                    6.99785   0.02825  -0.02104 
 C                    -3.04043   2.4143    2.46269 
 C                    -1.6025    2.55904   2.34874 
 C                    -1.31771   3.22513   1.0925 
 C                    -2.57913   3.4916    0.43008 
 C                    -3.64355   2.99073   1.27701 
 C                    -4.75959   2.39709   0.7083 
 C                    -4.86192   2.27617  -0.73256 
 C                    -3.84388   2.75438  -1.54248 
 C                    -2.6772    3.3761   -0.9483 
 C                    -1.5182    2.98952  -1.72861 
 C                    -0.3131    2.73188  -1.09487 
 C                    -0.21014   2.85329   0.34639 
 C                     0.65783   1.79623   0.82168 
 C                     0.38344   1.15914   2.01898 
 C                    -0.76787   1.55019   2.80352 
 C                    -1.33061   0.35251   3.39575 
 C                    -0.51976  -0.77596   2.98163 
 C                     0.54028  -0.27516   2.13059 
 C                     0.95852  -1.01289   1.03617 
 C                     1.24695  -0.34829  -0.21861 
 C                     1.09367   1.02452  -0.32267 
 C                     0.49261   1.60147  -1.50674 
 C                     0.06589   0.78013  -2.53597 
 C                    -1.19388   1.04825  -3.19918 
 C                    -1.9688    2.12803  -2.80477 
 C                    -3.40643   1.98275  -2.68928 
 C                    -4.00673   0.76631  -2.97509 
 C                    -5.07142   0.26604  -2.12775 
 C                    -5.48938   1.00408  -1.03163 
 C                    -5.77419   0.33842   0.22387 
 C                    -5.62826  -1.03597   0.32864 
 C                    -5.19084  -1.80808  -0.81755 
 C                    -4.91886  -1.17155  -2.01827 
 C                    -3.75983  -1.55938  -2.7977 
 C                    -3.19618  -0.36184  -3.38888 
 C                    -1.8211   -0.22401  -3.49785 
 C                    -0.94634  -1.27773  -3.02155 
 C                     0.22075  -0.65682  -2.42742 
 C                     0.79453  -1.20847  -1.29419 
 C                     0.231    -2.4046   -0.70315 
 C                     0.33308  -2.28417   0.73688 
 C                    -0.68174  -2.76482   1.54831 
 C                    -1.11931  -1.99235   2.69486 
 C                    -2.55722  -2.1362    2.80896 
 C                    -3.0077   -2.99668   1.73243 
 C                    -1.84828  -3.38512   0.95353 
 C                    -1.94651  -3.50072  -0.42486 
 C                    -0.88261  -3.00079  -1.27236 
 C                    -1.48585  -2.42324  -2.45714 
 C                    -2.92381  -2.56667  -2.34215 
 C                    -3.20829  -3.23252  -1.08612 
 C                    -4.31699  -2.86208  -0.34102 
 C                    -4.21417  -2.74108   1.09986 
 C                    -5.02459  -1.61255   1.51351 
 C                    -4.59383  -0.78957   2.54206 
 C                    -3.33241  -1.05703   3.20435 
 C                    -2.70555   0.21494   3.50462 
 C                    -3.57967   1.26881   3.02724 
 C                    -4.7466    0.64787   2.4324 
 C                    -5.32347   1.19957   1.29925 
 
 NAtoms=    104 NQM=      104 NQMF=       0 NMMI=      0 NMMIF=      0
                NMic=       0 NMicF=      0.
                    Isotopes and Nuclear Properties:
 (Nuclear quadrupole moments (NQMom) in fm**2, nuclear magnetic moments (NMagM)
  in nuclear magnetons)

  Atom         1           2           3           4           5           6           7           8           9          10
 IAtWgt=          12          12          12          12          12          12          12          14           1           1
 AtmWgt=  12.0000000  12.0000000  12.0000000  12.0000000  12.0000000  12.0000000  12.0000000  14.0030740   1.0078250   1.0078250
 NucSpn=           0           0           0           0           0           0           0           2           1           1
 AtZEff=   0.0000000   0.0000000   0.0000000   0.0000000   0.0000000   0.0000000   0.0000000   0.0000000   0.0000000   0.0000000
 NQMom=    0.0000000   0.0000000   0.0000000   0.0000000   0.0000000   0.0000000   0.0000000   2.0440000   0.0000000   0.0000000
 NMagM=    0.0000000   0.0000000   0.0000000   0.0000000   0.0000000   0.0000000   0.0000000   0.4037610   2.7928460   2.7928460
 AtZNuc=   6.0000000   6.0000000   6.0000000   6.0000000   6.0000000   6.0000000   6.0000000   7.0000000   1.0000000   1.0000000

  Atom        11          12          13          14          15          16          17          18          19          20
 IAtWgt=           1           1          12          14          12          12          12          12          12          12
 AtmWgt=   1.0078250   1.0078250  12.0000000  14.0030740  12.0000000  12.0000000  12.0000000  12.0000000  12.0000000  12.0000000
 NucSpn=           1           1           0           2           0           0           0           0           0           0
 AtZEff=   0.0000000   0.0000000   0.0000000   0.0000000   0.0000000   0.0000000   0.0000000   0.0000000   0.0000000   0.0000000
 NQMom=    0.0000000   0.0000000   0.0000000   2.0440000   0.0000000   0.0000000   0.0000000   0.0000000   0.0000000   0.0000000
 NMagM=    2.7928460   2.7928460   0.0000000   0.4037610   0.0000000   0.0000000   0.0000000   0.0000000   0.0000000   0.0000000
 AtZNuc=   1.0000000   1.0000000   6.0000000   7.0000000   6.0000000   6.0000000   6.0000000   6.0000000   6.0000000   6.0000000

  Atom        21          22          23          24          25          26          27          28          29          30
 IAtWgt=          12          14           1           1           1           1          11          12          14          12
 AtmWgt=  12.0000000  14.0030740   1.0078250   1.0078250   1.0078250   1.0078250  11.0093053  12.0000000  14.0030740  12.0000000
 NucSpn=           0           2           1           1           1           1           3           0           2           0
 AtZEff=   0.0000000   0.0000000   0.0000000   0.0000000   0.0000000   0.0000000   0.0000000   0.0000000   0.0000000   0.0000000
 NQMom=    0.0000000   2.0440000   0.0000000   0.0000000   0.0000000   0.0000000   4.0590000   0.0000000   2.0440000   0.0000000
 NMagM=    0.0000000   0.4037610   2.7928460   2.7928460   2.7928460   2.7928460   2.6886370   0.0000000   0.4037610   0.0000000
 AtZNuc=   6.0000000   7.0000000   1.0000000   1.0000000   1.0000000   1.0000000   5.0000000   6.0000000   7.0000000   6.0000000

  Atom        31          32          33          34          35          36          37          38          39          40
 IAtWgt=          12          12          12          12          12          12          14           1           1           1
 AtmWgt=  12.0000000  12.0000000  12.0000000  12.0000000  12.0000000  12.0000000  14.0030740   1.0078250   1.0078250   1.0078250
 NucSpn=           0           0           0           0           0           0           2           1           1           1
 AtZEff=   0.0000000   0.0000000   0.0000000   0.0000000   0.0000000   0.0000000   0.0000000   0.0000000   0.0000000   0.0000000
 NQMom=    0.0000000   0.0000000   0.0000000   0.0000000   0.0000000   0.0000000   2.0440000   0.0000000   0.0000000   0.0000000
 NMagM=    0.0000000   0.0000000   0.0000000   0.0000000   0.0000000   0.0000000   0.4037610   2.7928460   2.7928460   2.7928460
 AtZNuc=   6.0000000   6.0000000   6.0000000   6.0000000   6.0000000   6.0000000   7.0000000   1.0000000   1.0000000   1.0000000

  Atom        41          42          43          44          45          46          47          48          49          50
 IAtWgt=           1          12          14          35          12          12          12          12          12          12
 AtmWgt=   1.0078250  12.0000000  14.0030740  34.9688527  12.0000000  12.0000000  12.0000000  12.0000000  12.0000000  12.0000000
 NucSpn=           1           0           2           3           0           0           0           0           0           0
 AtZEff=   0.0000000   0.0000000   0.0000000   0.0000000   0.0000000   0.0000000   0.0000000   0.0000000   0.0000000   0.0000000
 NQMom=    0.0000000   0.0000000   2.0440000  -8.1650000   0.0000000   0.0000000   0.0000000   0.0000000   0.0000000   0.0000000
 NMagM=    2.7928460   0.0000000   0.4037610   0.8218740   0.0000000   0.0000000   0.0000000   0.0000000   0.0000000   0.0000000
 AtZNuc=   1.0000000   6.0000000   7.0000000  17.0000000   6.0000000   6.0000000   6.0000000   6.0000000   6.0000000   6.0000000

  Atom        51          52          53          54          55          56          57          58          59          60
 IAtWgt=          12          12          12          12          12          12          12          12          12          12
 AtmWgt=  12.0000000  12.0000000  12.0000000  12.0000000  12.0000000  12.0000000  12.0000000  12.0000000  12.0000000  12.0000000
 NucSpn=           0           0           0           0           0           0           0           0           0           0
 AtZEff=   0.0000000   0.0000000   0.0000000   0.0000000   0.0000000   0.0000000   0.0000000   0.0000000   0.0000000   0.0000000
 NQMom=    0.0000000   0.0000000   0.0000000   0.0000000   0.0000000   0.0000000   0.0000000   0.0000000   0.0000000   0.0000000
 NMagM=    0.0000000   0.0000000   0.0000000   0.0000000   0.0000000   0.0000000   0.0000000   0.0000000   0.0000000   0.0000000
 AtZNuc=   6.0000000   6.0000000   6.0000000   6.0000000   6.0000000   6.0000000   6.0000000   6.0000000   6.0000000   6.0000000

  Atom        61          62          63          64          65          66          67          68          69          70
 IAtWgt=          12          12          12          12          12          12          12          12          12          12
 AtmWgt=  12.0000000  12.0000000  12.0000000  12.0000000  12.0000000  12.0000000  12.0000000  12.0000000  12.0000000  12.0000000
 NucSpn=           0           0           0           0           0           0           0           0           0           0
 AtZEff=   0.0000000   0.0000000   0.0000000   0.0000000   0.0000000   0.0000000   0.0000000   0.0000000   0.0000000   0.0000000
 NQMom=    0.0000000   0.0000000   0.0000000   0.0000000   0.0000000   0.0000000   0.0000000   0.0000000   0.0000000   0.0000000
 NMagM=    0.0000000   0.0000000   0.0000000   0.0000000   0.0000000   0.0000000   0.0000000   0.0000000   0.0000000   0.0000000
 AtZNuc=   6.0000000   6.0000000   6.0000000   6.0000000   6.0000000   6.0000000   6.0000000   6.0000000   6.0000000   6.0000000

  Atom        71          72          73          74          75          76          77          78          79          80
 IAtWgt=          12          12          12          12          12          12          12          12          12          12
 AtmWgt=  12.0000000  12.0000000  12.0000000  12.0000000  12.0000000  12.0000000  12.0000000  12.0000000  12.0000000  12.0000000
 NucSpn=           0           0           0           0           0           0           0           0           0           0
 AtZEff=   0.0000000   0.0000000   0.0000000   0.0000000   0.0000000   0.0000000   0.0000000   0.0000000   0.0000000   0.0000000
 NQMom=    0.0000000   0.0000000   0.0000000   0.0000000   0.0000000   0.0000000   0.0000000   0.0000000   0.0000000   0.0000000
 NMagM=    0.0000000   0.0000000   0.0000000   0.0000000   0.0000000   0.0000000   0.0000000   0.0000000   0.0000000   0.0000000
 AtZNuc=   6.0000000   6.0000000   6.0000000   6.0000000   6.0000000   6.0000000   6.0000000   6.0000000   6.0000000   6.0000000

  Atom        81          82          83          84          85          86          87          88          89          90
 IAtWgt=          12          12          12          12          12          12          12          12          12          12
 AtmWgt=  12.0000000  12.0000000  12.0000000  12.0000000  12.0000000  12.0000000  12.0000000  12.0000000  12.0000000  12.0000000
 NucSpn=           0           0           0           0           0           0           0           0           0           0
 AtZEff=   0.0000000   0.0000000   0.0000000   0.0000000   0.0000000   0.0000000   0.0000000   0.0000000   0.0000000   0.0000000
 NQMom=    0.0000000   0.0000000   0.0000000   0.0000000   0.0000000   0.0000000   0.0000000   0.0000000   0.0000000   0.0000000
 NMagM=    0.0000000   0.0000000   0.0000000   0.0000000   0.0000000   0.0000000   0.0000000   0.0000000   0.0000000   0.0000000
 AtZNuc=   6.0000000   6.0000000   6.0000000   6.0000000   6.0000000   6.0000000   6.0000000   6.0000000   6.0000000   6.0000000

  Atom        91          92          93          94          95          96          97          98          99         100
 IAtWgt=          12          12          12          12          12          12          12          12          12          12
 AtmWgt=  12.0000000  12.0000000  12.0000000  12.0000000  12.0000000  12.0000000  12.0000000  12.0000000  12.0000000  12.0000000
 NucSpn=           0           0           0           0           0           0           0           0           0           0
 AtZEff=   0.0000000   0.0000000   0.0000000   0.0000000   0.0000000   0.0000000   0.0000000   0.0000000   0.0000000   0.0000000
 NQMom=    0.0000000   0.0000000   0.0000000   0.0000000   0.0000000   0.0000000   0.0000000   0.0000000   0.0000000   0.0000000
 NMagM=    0.0000000   0.0000000   0.0000000   0.0000000   0.0000000   0.0000000   0.0000000   0.0000000   0.0000000   0.0000000
 AtZNuc=   6.0000000   6.0000000   6.0000000   6.0000000   6.0000000   6.0000000   6.0000000   6.0000000   6.0000000   6.0000000

  Atom       101         102         103         104
 IAtWgt=          12          12          12          12
 AtmWgt=  12.0000000  12.0000000  12.0000000  12.0000000
 NucSpn=           0           0           0           0
 AtZEff=   0.0000000   0.0000000   0.0000000   0.0000000
 NQMom=    0.0000000   0.0000000   0.0000000   0.0000000
 NMagM=    0.0000000   0.0000000   0.0000000   0.0000000
 AtZNuc=   6.0000000   6.0000000   6.0000000   6.0000000
 Leave Link  101 at Mon Aug  6 10:31:23 2018, MaxMem=   536870912 cpu:         1.6
 (Enter /local/isv/Gaussian/09_D01.PG/g09/l202.exe)
 Stoichiometry    C84H12BClN6
 Framework group  C1[X(C84H12BClN6)]
 Deg. of freedom   306
 Full point group                 C1      NOp   1
 Largest Abelian subgroup         C1      NOp   1
 Largest concise Abelian subgroup C1      NOp   1
                         Standard orientation:                         
 ---------------------------------------------------------------------
 Center     Atomic      Atomic             Coordinates (Angstroms)
 Number     Number       Type             X           Y           Z
 ---------------------------------------------------------------------
      1          6           0       -2.274508   -3.377063   -4.125801
      2          6           0       -2.263053   -2.176926   -4.857772
      3          6           0       -2.862802   -1.028400   -4.364501
      4          6           0       -3.499115   -1.102110   -3.126404
      5          6           0       -2.882960   -3.455724   -2.882831
      6          6           0       -3.508892   -2.312701   -2.386370
      7          6           0       -4.084811   -0.076619   -2.279894
      8          7           0       -4.526754   -0.727402   -1.167380
      9          1           0       -1.785971   -4.253872   -4.539092
     10          1           0       -1.764636   -2.148866   -5.821605
     11          1           0       -2.832007   -0.091627   -4.910642
     12          1           0       -2.867978   -4.371314   -2.301162
     13          6           0       -4.094484   -2.017803   -1.089182
     14          7           0       -3.961881   -2.665579    0.070485
     15          6           0       -2.371410    5.281630   -0.851460
     16          6           0       -2.379280    5.322023    0.553886
     17          6           0       -2.960177    4.307426    1.298559
     18          6           0       -3.561290    3.252658    0.613032
     19          6           0       -2.944894    4.226267   -1.543315
     20          6           0       -3.553956    3.212454   -0.805311
     21          6           0       -4.123471    1.994237    1.075231
     22          7           0       -4.543935    1.346366   -0.047835
     23          1           0       -1.895073    6.087256   -1.401311
     24          1           0       -1.909632    6.158443    1.061923
     25          1           0       -2.941882    4.318032    2.383175
     26          1           0       -2.914117    4.173662   -2.626437
     27          5           0       -5.140800   -0.017002   -0.012185
     28          6           0       -4.111764    1.929946   -1.201203
     29          7           0       -3.958470    1.250980   -2.339371
     30          6           0       -2.310268   -1.891396    4.977009
     31          6           0       -2.317412   -3.133315    4.316477
     32          6           0       -2.919605   -3.285852    3.077934
     33          6           0       -3.541645   -2.174173    2.510303
     34          6           0       -2.910472   -0.775822    4.415263
     35          6           0       -3.539829   -0.923162    3.179374
     36          6           0       -4.107319   -1.952956    1.189853
     37          7           0       -4.538028   -0.659633    1.187425
     38          1           0       -1.815817   -1.805780    5.939523
     39          1           0       -1.828734   -3.983267    4.782403
     40          1           0       -2.898251   -4.233292    2.550088
     41          1           0       -2.883640    0.191304    4.905881
     42          6           0       -4.113578    0.052976    2.268586
     43          7           0       -3.985222    1.381555    2.252456
     44         17           0       -6.997849   -0.028252   -0.021038
     45          6           0        3.040435   -2.414302    2.462691
     46          6           0        1.602499   -2.559042    2.348738
     47          6           0        1.317712   -3.225126    1.092498
     48          6           0        2.579125   -3.491600    0.430081
     49          6           0        3.643551   -2.990730    1.277009
     50          6           0        4.759588   -2.397094    0.708300
     51          6           0        4.861924   -2.276173   -0.732561
     52          6           0        3.843880   -2.754375   -1.542479
     53          6           0        2.677201   -3.376098   -0.948296
     54          6           0        1.518203   -2.989521   -1.728605
     55          6           0        0.313102   -2.731881   -1.094866
     56          6           0        0.210140   -2.853292    0.346386
     57          6           0       -0.657833   -1.796230    0.821680
     58          6           0       -0.383438   -1.159137    2.018985
     59          6           0        0.767874   -1.550192    2.803519
     60          6           0        1.330611   -0.352511    3.395754
     61          6           0        0.519763    0.775955    2.981629
     62          6           0       -0.540281    0.275164    2.130591
     63          6           0       -0.958524    1.012891    1.036171
     64          6           0       -1.246951    0.348285   -0.218610
     65          6           0       -1.093666   -1.024520   -0.322668
     66          6           0       -0.492613   -1.601471   -1.506735
     67          6           0       -0.065890   -0.780129   -2.535968
     68          6           0        1.193882   -1.048251   -3.199179
     69          6           0        1.968797   -2.128027   -2.804771
     70          6           0        3.406425   -1.982747   -2.689277
     71          6           0        4.006731   -0.766313   -2.975093
     72          6           0        5.071419   -0.266035   -2.127753
     73          6           0        5.489384   -1.004077   -1.031630
     74          6           0        5.774190   -0.338419    0.223871
     75          6           0        5.628259    1.035967    0.328640
     76          6           0        5.190843    1.808081   -0.817554
     77          6           0        4.918856    1.171548   -2.018268
     78          6           0        3.759825    1.559376   -2.797700
     79          6           0        3.196179    0.361836   -3.388879
     80          6           0        1.821102    0.224008   -3.497850
     81          6           0        0.946342    1.277726   -3.021547
     82          6           0       -0.220748    0.656816   -2.427423
     83          6           0       -0.794525    1.208471   -1.294193
     84          6           0       -0.230997    2.404597   -0.703153
     85          6           0       -0.333082    2.284172    0.736882
     86          6           0        0.681738    2.764824    1.548305
     87          6           0        1.119309    1.992349    2.694862
     88          6           0        2.557217    2.136201    2.808958
     89          6           0        3.007702    2.996679    1.732425
     90          6           0        1.848275    3.385123    0.953525
     91          6           0        1.946512    3.500722   -0.424856
     92          6           0        0.882607    3.000787   -1.272359
     93          6           0        1.485845    2.423243   -2.457141
     94          6           0        2.923809    2.566667   -2.342148
     95          6           0        3.208288    3.232523   -1.086120
     96          6           0        4.316989    2.862084   -0.341024
     97          6           0        4.214166    2.741082    1.099862
     98          6           0        5.024586    1.612550    1.513507
     99          6           0        4.593829    0.789569    2.542064
    100          6           0        3.332409    1.057029    3.204354
    101          6           0        2.705550   -0.214940    3.504618
    102          6           0        3.579668   -1.268809    3.027241
    103          6           0        4.746595   -0.647874    2.432401
    104          6           0        5.323472   -1.199572    1.299254
 ---------------------------------------------------------------------
 Rotational constants (GHZ):      0.0442338      0.0264580      0.0264330
 Leave Link  202 at Mon Aug  6 10:31:23 2018, MaxMem=   536870912 cpu:         0.1
 (Enter /local/isv/Gaussian/09_D01.PG/g09/l301.exe)
 Standard basis: 6-31G(d) (6D, 7F)
 Ernie: Thresh=  0.10000D-02 Tol=  0.10000D-05 Strict=F.
 There are  1408 symmetry adapted cartesian basis functions of A   symmetry.
 There are  1408 symmetry adapted basis functions of A   symmetry.
  1408 basis functions,  2648 primitive gaussians,  1408 cartesian basis functions
   290 alpha electrons      290 beta electrons
       nuclear repulsion energy     17520.6018088205 Hartrees.
 IExCor=20419 DFT=T Ex+Corr=CAM-B3LYP ExCW=0 ScaHFX=  1.000000
 ScaDFX=  1.000000  1.000000  1.000000  0.810000 ScalE2=  1.000000  1.000000
 IRadAn=      0 IRanWt=     -1 IRanGd=            0 ICorTp=0 IEmpDi=  4
  HFx wShort=  0.000000 wLong=  0.330000 cFull=  0.190000 cShort=  0.000000 cLong=  0.460000
  DFx wShort=  0.000000 wLong=  0.330000 cFull=  0.190000 cShort=  0.000000 cLong=  0.460000
 NAtoms=  104 NActive=  104 NUniq=  104 SFac= 1.00D+00 NAtFMM=   60 NAOKFM=T Big=T
 Integral buffers will be    131072 words long.
 Raffenetti 1 integral format.
 Two-electron integral symmetry is turned on.
 Using the following non-standard input for PCM:
 EPS=4.2
 --- end of non-standard input.
 ------------------------------------------------------------------------------
 Polarizable Continuum Model (PCM)
 =================================
 Model                : PCM (using non-symmetric T matrix).
 Atomic radii         : UFF (Universal Force Field).
 Polarization charges : Total charges.
 Charge compensation  : None.
 Solution method      : On-the-fly selection.
 Cavity type          : Scaled VdW (van der Waals Surface) (Alpha=1.100).
 Cavity algorithm     : GePol (No added spheres)
                        Default sphere list used, NSphG=  104.
                        Lebedev-Laikov grids with approx.  5.0 points / Ang**2.
                        Smoothing algorithm: Karplus/York (Gamma=1.0000).
                        Polarization charges: spherical gaussians, with
                                              point-specific exponents (IZeta= 3).
                        Self-potential: point-specific (ISelfS= 7).
                        Self-field    : sphere-specific E.n sum rule (ISelfD= 2).
 Solvent              : Water, Eps=   4.200000 Eps(inf)=   1.777849
 ------------------------------------------------------------------------------
 GePol: Number of generator spheres                  =     104
 GePol: Total number of spheres                      =     104
 GePol: Number of exposed spheres                    =     104 (100.00%)
 GePol: Number of points                             =    5793
 GePol: Average weight of points                     =       0.13
 GePol: Minimum weight of points                     =   0.22D-11
 GePol: Maximum weight of points                     =    0.21616
 GePol: Number of points with low weight             =     467
 GePol: Fraction of low-weight points (<1% of avg)   =       8.06%
 GePol: Cavity surface area                          =    737.686 Ang**2
 GePol: Cavity volume                                =   1149.745 Ang**3
 Leave Link  301 at Mon Aug  6 10:31:23 2018, MaxMem=   536870912 cpu:         1.7
 (Enter /local/isv/Gaussian/09_D01.PG/g09/l302.exe)
 NPDir=0 NMtPBC=     1 NCelOv=     1 NCel=       1 NClECP=     1 NCelD=      1
         NCelK=      1 NCelE2=     1 NClLst=     1 CellRange=     0.0.
 One-electron integrals computed using PRISM.
 NBasis=  1408 RedAO= T EigKep=  3.01D-04  NBF=  1408
 NBsUse=  1408 1.00D-06 EigRej= -1.00D+00 NBFU=  1408
 Precomputing XC quadrature grid using
 IXCGrd= 4 IRadAn=           0 IRanWt=          -1 IRanGd=           0 AccXCQ= 0.00D+00.
 Generated NRdTot=       0 NPtTot=           0 NUsed=           0 NTot=          32
 NSgBfM=  1234  1270  1270  1288  1298 MxSgAt=   104 MxSgA2=   104.
 Leave Link  302 at Mon Aug  6 10:31:28 2018, MaxMem=   536870912 cpu:        75.0
 (Enter /local/isv/Gaussian/09_D01.PG/g09/l308.exe)
 Leave Link  308 at Mon Aug  6 10:31:28 2018, MaxMem=   536870912 cpu:         5.3
 (Enter /local/isv/Gaussian/09_D01.PG/g09/l303.exe)
 DipDrv:  MaxL=1.
 Leave Link  303 at Mon Aug  6 10:31:29 2018, MaxMem=   536870912 cpu:         3.8
 (Enter /local/isv/Gaussian/09_D01.PG/g09/l401.exe)
 ExpMin= 1.27D-01 ExpMax= 2.52D+04 ExpMxC= 3.78D+03 IAcc=1 IRadAn=         1 AccDes= 0.00D+00
 Harris functional with IExCor=20419 and IRadAn=       1 diagonalized for initial guess.
 HarFok:  IExCor=20419 AccDes= 0.00D+00 IRadAn=         1 IDoV= 1 UseB2=F ITyADJ=14
 ICtDFT=  3500011 ScaDFX=  1.000000  1.000000  1.000000  1.000000
 FoFCou: FMM=F IPFlag=           0 FMFlag=      100000 FMFlg1=        2001
         NFxFlg=           0 DoJE=T BraDBF=F KetDBF=T FulRan=T
         wScrn=  0.000000 ICntrl=     500 IOpCl=  0 I1Cent=   200000004 NGrid=           0
         NMat0=    1 NMatS0=      1 NMatT0=    0 NMatD0=    1 NMtDS0=    0 NMtDT0=    0
 Petite list used in FoFCou.
 Harris En= -3875.03126323076    
 JPrj=0 DoOrth=F DoCkMO=F.
 Leave Link  401 at Mon Aug  6 10:31:34 2018, MaxMem=   536870912 cpu:        89.9
 (Enter /local/isv/Gaussian/09_D01.PG/g09/l502.exe)
 Closed shell SCF:
 Using DIIS extrapolation, IDIIS=  1040.
 Integral symmetry usage will be decided dynamically.
 IVT=     5998927 IEndB=     5998927 NGot=   536870912 MDV=   532872498
 LenX=   532872498 LenY=   530888626
 Requested convergence on RMS density matrix=1.00D-08 within 128 cycles.
 Requested convergence on MAX density matrix=1.00D-06.
 Requested convergence on             energy=1.00D-06.
 No special actions if energy rises.
 Fock matrices will be formed incrementally for  20 cycles.

 Cycle   1  Pass 1  IDiag  1:
 FoFJK:  IHMeth= 1 ICntrl=       0 DoSepK=T KAlg= 0 I1Cent=   0 FoldK=F
 IRaf=         1 NMat=   1 IRICut=       1 DoRegI=T DoRafI=F ISym2E= 0.
 FoFCou: FMM=T IPFlag=           0 FMFlag=      100000 FMFlg1=        2001
         NFxFlg=           0 DoJE=T BraDBF=F KetDBF=F FulRan=T
         wScrn=  0.000000 ICntrl=     500 IOpCl=  0 I1Cent=           0 NGrid=           0
         NMat0=    1 NMatS0=      1 NMatT0=    0 NMatD0=    1 NMtDS0=    0 NMtDT0=    0
 Symmetry not used in FoFCou.
 FMM levels:  10  Number of levels for PrismC:   9
 Inv3:  Mode=1 IEnd=   100676547.
 Iteration    1 A*A^-1 deviation from unit magnitude is 1.09D-14 for   5785.
 Iteration    1 A*A^-1 deviation from orthogonality  is 6.45D-15 for   5776   5736.
 Iteration    1 A^-1*A deviation from unit magnitude is 1.07D-14 for   5785.
 Iteration    1 A^-1*A deviation from orthogonality  is 2.37D-11 for   2833   2814.
 E= -4019.06788266092    
 DIIS: error= 1.19D-01 at cycle   1 NSaved=   1.
 NSaved= 1 IEnMin= 1 EnMin= -4019.06788266092     IErMin= 1 ErrMin= 1.19D-01
 ErrMax= 1.19D-01  0.00D+00 EMaxC= 1.00D-01 BMatC= 2.85D+00 BMatP= 2.85D+00
 IDIUse=3 WtCom= 0.00D+00 WtEn= 1.00D+00
 Coeff-Com:  0.100D+01
 Coeff-En:   0.100D+01
 Coeff:      0.100D+01
 Gap=     0.213 Goal=   None    Shift=    0.000
 GapD=    0.213 DampG=1.000 DampE=0.250 DampFc=0.2500 IDamp=-1.
 Damping current iteration by 2.50D-01
 RMSDP=1.48D-03 MaxDP=2.27D-01              OVMax= 1.94D-01

 Cycle   2  Pass 1  IDiag  1:
 RMSU=  3.70D-04    CP:  9.98D-01
 E= -4019.27945248799     Delta-E=       -0.211569827072 Rises=F Damp=T
 DIIS: error= 8.34D-02 at cycle   2 NSaved=   2.
 NSaved= 2 IEnMin= 2 EnMin= -4019.27945248799     IErMin= 2 ErrMin= 8.34D-02
 ErrMax= 8.34D-02  0.00D+00 EMaxC= 1.00D-01 BMatC= 1.49D+00 BMatP= 2.85D+00
 IDIUse=3 WtCom= 1.66D-01 WtEn= 8.34D-01
 Coeff-Com: -0.224D+01 0.324D+01
 Coeff-En:   0.000D+00 0.100D+01
 Coeff:     -0.372D+00 0.137D+01
 Gap=     0.176 Goal=   None    Shift=    0.000
 RMSDP=8.89D-04 MaxDP=1.01D-01 DE=-2.12D-01 OVMax= 8.97D-02

 Cycle   3  Pass 1  IDiag  1:
 RMSU=  4.21D-04    CP:  9.95D-01  3.00D+00
 E= -4019.76427293176     Delta-E=       -0.484820443769 Rises=F Damp=F
 DIIS: error= 1.13D-02 at cycle   3 NSaved=   3.
 NSaved= 3 IEnMin= 3 EnMin= -4019.76427293176     IErMin= 3 ErrMin= 1.13D-02
 ErrMax= 1.13D-02  0.00D+00 EMaxC= 1.00D-01 BMatC= 2.15D-02 BMatP= 1.49D+00
 IDIUse=3 WtCom= 8.87D-01 WtEn= 1.13D-01
 Coeff-Com:  0.517D+00-0.657D+00 0.114D+01
 Coeff-En:   0.000D+00 0.000D+00 0.100D+01
 Coeff:      0.458D+00-0.583D+00 0.112D+01
 Gap=     0.166 Goal=   None    Shift=    0.000
 RMSDP=2.50D-04 MaxDP=8.58D-02 DE=-4.85D-01 OVMax= 2.99D-02

 Cycle   4  Pass 1  IDiag  1:
 RMSU=  2.22D-04    CP:  9.95D-01  2.88D+00  1.21D+00
 E= -4019.77319616428     Delta-E=       -0.008923232523 Rises=F Damp=F
 DIIS: error= 5.05D-03 at cycle   4 NSaved=   4.
 NSaved= 4 IEnMin= 4 EnMin= -4019.77319616428     IErMin= 4 ErrMin= 5.05D-03
 ErrMax= 5.05D-03  0.00D+00 EMaxC= 1.00D-01 BMatC= 1.33D-02 BMatP= 2.15D-02
 IDIUse=3 WtCom= 9.50D-01 WtEn= 5.05D-02
 Coeff-Com:  0.335D+00-0.438D+00 0.632D+00 0.471D+00
 Coeff-En:   0.000D+00 0.000D+00 0.316D+00 0.684D+00
 Coeff:      0.318D+00-0.416D+00 0.616D+00 0.481D+00
 Gap=     0.151 Goal=   None    Shift=    0.000
 RMSDP=1.24D-04 MaxDP=2.23D-02 DE=-8.92D-03 OVMax= 2.02D-02

 Cycle   5  Pass 1  IDiag  1:
 RMSU=  5.87D-05    CP:  9.94D-01  2.90D+00  1.23D+00  5.11D-01
 E= -4019.78501024596     Delta-E=       -0.011814081685 Rises=F Damp=F
 DIIS: error= 7.60D-04 at cycle   5 NSaved=   5.
 NSaved= 5 IEnMin= 5 EnMin= -4019.78501024596     IErMin= 5 ErrMin= 7.60D-04
 ErrMax= 7.60D-04  0.00D+00 EMaxC= 1.00D-01 BMatC= 5.43D-04 BMatP= 1.33D-02
 IDIUse=3 WtCom= 9.92D-01 WtEn= 7.60D-03
 Coeff-Com:  0.121D+00-0.158D+00 0.234D+00 0.239D+00 0.564D+00
 Coeff-En:   0.000D+00 0.000D+00 0.000D+00 0.000D+00 0.100D+01
 Coeff:      0.120D+00-0.157D+00 0.232D+00 0.237D+00 0.568D+00
 Gap=     0.151 Goal=   None    Shift=    0.000
 RMSDP=2.67D-05 MaxDP=4.90D-03 DE=-1.18D-02 OVMax= 5.94D-03

 Cycle   6  Pass 1  IDiag  1:
 RMSU=  2.07D-05    CP:  9.94D-01  2.91D+00  1.23D+00  5.59D-01  7.80D-01
 E= -4019.78552738472     Delta-E=       -0.000517138760 Rises=F Damp=F
 DIIS: error= 1.82D-04 at cycle   6 NSaved=   6.
 NSaved= 6 IEnMin= 6 EnMin= -4019.78552738472     IErMin= 6 ErrMin= 1.82D-04
 ErrMax= 1.82D-04  0.00D+00 EMaxC= 1.00D-01 BMatC= 6.50D-05 BMatP= 5.43D-04
 IDIUse=3 WtCom= 9.98D-01 WtEn= 1.82D-03
 Coeff-Com:  0.147D-03-0.578D-03 0.385D-03 0.320D-01 0.282D+00 0.686D+00
 Coeff-En:   0.000D+00 0.000D+00 0.000D+00 0.000D+00 0.240D-01 0.976D+00
 Coeff:      0.147D-03-0.577D-03 0.385D-03 0.319D-01 0.281D+00 0.687D+00
 Gap=     0.151 Goal=   None    Shift=    0.000
 RMSDP=9.88D-06 MaxDP=7.57D-04 DE=-5.17D-04 OVMax= 2.22D-03

 Cycle   7  Pass 1  IDiag  1:
 RMSU=  7.09D-06    CP:  9.94D-01  2.91D+00  1.24D+00  5.61D-01  8.54D-01
                    CP:  7.69D-01
 E= -4019.78559644624     Delta-E=       -0.000069061520 Rises=F Damp=F
 DIIS: error= 1.46D-04 at cycle   7 NSaved=   7.
 NSaved= 7 IEnMin= 7 EnMin= -4019.78559644624     IErMin= 7 ErrMin= 1.46D-04
 ErrMax= 1.46D-04  0.00D+00 EMaxC= 1.00D-01 BMatC= 1.20D-05 BMatP= 6.50D-05
 IDIUse=3 WtCom= 9.99D-01 WtEn= 1.46D-03
 Coeff-Com: -0.171D-01 0.222D-01-0.337D-01-0.169D-01 0.752D-01 0.379D+00
 Coeff-Com:  0.591D+00
 Coeff-En:   0.000D+00 0.000D+00 0.000D+00 0.000D+00 0.000D+00 0.000D+00
 Coeff-En:   0.100D+01
 Coeff:     -0.170D-01 0.222D-01-0.337D-01-0.169D-01 0.751D-01 0.378D+00
 Coeff:      0.592D+00
 Gap=     0.151 Goal=   None    Shift=    0.000
 RMSDP=3.81D-06 MaxDP=8.70D-04 DE=-6.91D-05 OVMax= 8.72D-04

 Cycle   8  Pass 1  IDiag  1:
 RMSU=  2.80D-06    CP:  9.94D-01  2.91D+00  1.24D+00  5.65D-01  8.70D-01
                    CP:  8.46D-01  7.91D-01
 E= -4019.78561025608     Delta-E=       -0.000013809840 Rises=F Damp=F
 DIIS: error= 2.11D-05 at cycle   8 NSaved=   8.
 NSaved= 8 IEnMin= 8 EnMin= -4019.78561025608     IErMin= 8 ErrMin= 2.11D-05
 ErrMax= 2.11D-05  0.00D+00 EMaxC= 1.00D-01 BMatC= 7.10D-07 BMatP= 1.20D-05
 IDIUse=1 WtCom= 1.00D+00 WtEn= 0.00D+00
 Coeff-Com: -0.732D-02 0.957D-02-0.144D-01-0.104D-01 0.536D-02 0.913D-01
 Coeff-Com:  0.231D+00 0.695D+00
 Coeff:     -0.732D-02 0.957D-02-0.144D-01-0.104D-01 0.536D-02 0.913D-01
 Coeff:      0.231D+00 0.695D+00
 Gap=     0.151 Goal=   None    Shift=    0.000
 RMSDP=1.32D-06 MaxDP=1.26D-04 DE=-1.38D-05 OVMax= 3.58D-04

 Cycle   9  Pass 1  IDiag  1:
 RMSU=  1.10D-06    CP:  9.94D-01  2.91D+00  1.24D+00  5.65D-01  8.76D-01
                    CP:  8.61D-01  8.64D-01  9.78D-01
 E= -4019.78561139303     Delta-E=       -0.000001136941 Rises=F Damp=F
 DIIS: error= 1.23D-05 at cycle   9 NSaved=   9.
 NSaved= 9 IEnMin= 9 EnMin= -4019.78561139303     IErMin= 9 ErrMin= 1.23D-05
 ErrMax= 1.23D-05  0.00D+00 EMaxC= 1.00D-01 BMatC= 2.44D-07 BMatP= 7.10D-07
 IDIUse=1 WtCom= 1.00D+00 WtEn= 0.00D+00
 Coeff-Com:  0.833D-04-0.840D-04 0.248D-03-0.179D-02-0.163D-01-0.462D-01
 Coeff-Com: -0.264D-01 0.385D+00 0.706D+00
 Coeff:      0.833D-04-0.840D-04 0.248D-03-0.179D-02-0.163D-01-0.462D-01
 Coeff:     -0.264D-01 0.385D+00 0.706D+00
 Gap=     0.151 Goal=   None    Shift=    0.000
 RMSDP=7.34D-07 MaxDP=5.65D-05 DE=-1.14D-06 OVMax= 2.02D-04

 Cycle  10  Pass 1  IDiag  1:
 RMSU=  4.33D-07    CP:  9.94D-01  2.91D+00  1.24D+00  5.65D-01  8.78D-01
                    CP:  8.68D-01  8.95D-01  1.14D+00  8.02D-01
 E= -4019.78561177849     Delta-E=       -0.000000385466 Rises=F Damp=F
 DIIS: error= 4.07D-06 at cycle  10 NSaved=  10.
 NSaved=10 IEnMin=10 EnMin= -4019.78561177849     IErMin=10 ErrMin= 4.07D-06
 ErrMax= 4.07D-06  0.00D+00 EMaxC= 1.00D-01 BMatC= 4.42D-08 BMatP= 2.44D-07
 IDIUse=1 WtCom= 1.00D+00 WtEn= 0.00D+00
 Coeff-Com:  0.114D-02-0.148D-02 0.233D-02 0.536D-03-0.103D-01-0.410D-01
 Coeff-Com: -0.506D-01 0.115D+00 0.397D+00 0.587D+00
 Coeff:      0.114D-02-0.148D-02 0.233D-02 0.536D-03-0.103D-01-0.410D-01
 Coeff:     -0.506D-01 0.115D+00 0.397D+00 0.587D+00
 Gap=     0.151 Goal=   None    Shift=    0.000
 RMSDP=2.69D-07 MaxDP=3.18D-05 DE=-3.85D-07 OVMax= 7.16D-05

 Cycle  11  Pass 1  IDiag  1:
 RMSU=  1.77D-07    CP:  9.94D-01  2.91D+00  1.24D+00  5.65D-01  8.79D-01
                    CP:  8.69D-01  9.09D-01  1.17D+00  9.12D-01  7.99D-01
 E= -4019.78561183736     Delta-E=       -0.000000058866 Rises=F Damp=F
 DIIS: error= 1.33D-06 at cycle  11 NSaved=  11.
 NSaved=11 IEnMin=11 EnMin= -4019.78561183736     IErMin=11 ErrMin= 1.33D-06
 ErrMax= 1.33D-06  0.00D+00 EMaxC= 1.00D-01 BMatC= 4.25D-09 BMatP= 4.42D-08
 IDIUse=1 WtCom= 1.00D+00 WtEn= 0.00D+00
 Coeff-Com:  0.478D-03-0.623D-03 0.996D-03 0.535D-03-0.170D-02-0.999D-02
 Coeff-Com: -0.172D-01-0.111D-01 0.603D-01 0.267D+00 0.711D+00
 Coeff:      0.478D-03-0.623D-03 0.996D-03 0.535D-03-0.170D-02-0.999D-02
 Coeff:     -0.172D-01-0.111D-01 0.603D-01 0.267D+00 0.711D+00
 Gap=     0.151 Goal=   None    Shift=    0.000
 RMSDP=8.80D-08 MaxDP=8.78D-06 DE=-5.89D-08 OVMax= 2.37D-05

 Cycle  12  Pass 1  IDiag  1:
 RMSU=  6.04D-08    CP:  9.94D-01  2.91D+00  1.24D+00  5.65D-01  8.79D-01
                    CP:  8.69D-01  9.10D-01  1.17D+00  9.26D-01  9.18D-01
                    CP:  9.23D-01
 E= -4019.78561184289     Delta-E=       -0.000000005530 Rises=F Damp=F
 DIIS: error= 5.21D-07 at cycle  12 NSaved=  12.
 NSaved=12 IEnMin=12 EnMin= -4019.78561184289     IErMin=12 ErrMin= 5.21D-07
 ErrMax= 5.21D-07  0.00D+00 EMaxC= 1.00D-01 BMatC= 4.45D-10 BMatP= 4.25D-09
 IDIUse=1 WtCom= 1.00D+00 WtEn= 0.00D+00
 Coeff-Com:  0.228D-04-0.305D-04 0.624D-04 0.131D-03 0.840D-03 0.209D-02
 Coeff-Com:  0.495D-03-0.196D-01-0.328D-01 0.169D-01 0.266D+00 0.766D+00
 Coeff:      0.228D-04-0.305D-04 0.624D-04 0.131D-03 0.840D-03 0.209D-02
 Coeff:      0.495D-03-0.196D-01-0.328D-01 0.169D-01 0.266D+00 0.766D+00
 Gap=     0.151 Goal=   None    Shift=    0.000
 RMSDP=3.40D-08 MaxDP=2.87D-06 DE=-5.53D-09 OVMax= 1.21D-05

 Cycle  13  Pass 1  IDiag  1:
 RMSU=  2.50D-08    CP:  9.94D-01  2.91D+00  1.24D+00  5.65D-01  8.79D-01
                    CP:  8.70D-01  9.10D-01  1.18D+00  9.34D-01  9.44D-01
                    CP:  1.00D+00  9.25D-01
 E= -4019.78561184476     Delta-E=       -0.000000001874 Rises=F Damp=F
 DIIS: error= 3.27D-07 at cycle  13 NSaved=  13.
 NSaved=13 IEnMin=13 EnMin= -4019.78561184476     IErMin=13 ErrMin= 3.27D-07
 ErrMax= 3.27D-07  0.00D+00 EMaxC= 1.00D-01 BMatC= 9.72D-11 BMatP= 4.45D-10
 IDIUse=1 WtCom= 1.00D+00 WtEn= 0.00D+00
 Coeff-Com: -0.467D-04 0.606D-04-0.886D-04-0.472D-05 0.584D-03 0.213D-02
 Coeff-Com:  0.215D-02-0.716D-02-0.220D-01-0.260D-01 0.335D-01 0.362D+00
 Coeff-Com:  0.655D+00
 Coeff:     -0.467D-04 0.606D-04-0.886D-04-0.472D-05 0.584D-03 0.213D-02
 Coeff:      0.215D-02-0.716D-02-0.220D-01-0.260D-01 0.335D-01 0.362D+00
 Coeff:      0.655D+00
 Gap=     0.151 Goal=   None    Shift=    0.000
 RMSDP=1.37D-08 MaxDP=8.38D-07 DE=-1.87D-09 OVMax= 4.20D-06

 Cycle  14  Pass 1  IDiag  1:
 RMSU=  1.12D-08    CP:  9.94D-01  2.91D+00  1.24D+00  5.65D-01  8.79D-01
                    CP:  8.70D-01  9.10D-01  1.18D+00  9.35D-01  9.50D-01
                    CP:  1.02D+00  1.02D+00  9.39D-01
 E= -4019.78561184486     Delta-E=       -0.000000000102 Rises=F Damp=F
 DIIS: error= 1.19D-07 at cycle  14 NSaved=  14.
 NSaved=14 IEnMin=14 EnMin= -4019.78561184486     IErMin=14 ErrMin= 1.19D-07
 ErrMax= 1.19D-07  0.00D+00 EMaxC= 1.00D-01 BMatC= 1.70D-11 BMatP= 9.72D-11
 IDIUse=1 WtCom= 1.00D+00 WtEn= 0.00D+00
 Coeff-Com: -0.224D-04 0.292D-04-0.473D-04-0.316D-04 0.450D-04 0.368D-03
 Coeff-Com:  0.632D-03 0.180D-02-0.150D-02-0.153D-01-0.475D-01-0.155D-01
 Coeff-Com:  0.274D+00 0.803D+00
 Coeff:     -0.224D-04 0.292D-04-0.473D-04-0.316D-04 0.450D-04 0.368D-03
 Coeff:      0.632D-03 0.180D-02-0.150D-02-0.153D-01-0.475D-01-0.155D-01
 Coeff:      0.274D+00 0.803D+00
 Gap=     0.151 Goal=   None    Shift=    0.000
 RMSDP=7.78D-09 MaxDP=4.70D-07 DE=-1.02D-10 OVMax= 3.33D-06

 Error on total polarization charges =  0.01176
 SCF Done:  E(RCAM-B3LYP) =  -4019.78561184     A.U. after   14 cycles
            NFock= 14  Conv=0.78D-08     -V/T= 2.0080
 KE= 3.987703217133D+03 PE=-4.438331863480D+04 EE= 1.885522799700D+04
 Leave Link  502 at Mon Aug  6 10:47:55 2018, MaxMem=   536870912 cpu:     15230.8
 (Enter /local/isv/Gaussian/09_D01.PG/g09/l801.exe)
 DoSCS=F DFT=T ScalE2(SS,OS)=  1.000000  1.000000
 ExpMin= 1.27D-01 ExpMax= 2.52D+04 ExpMxC= 3.78D+03 IAcc=3 IRadAn=         5 AccDes= 0.00D+00
 HarFok:  IExCor=  205 AccDes= 0.00D+00 IRadAn=         5 IDoV=-2 UseB2=F ITyADJ=14
 ICtDFT= 12500011 ScaDFX=  1.000000  1.000000  1.000000  1.000000
 Largest valence mixing into a core orbital is  8.04D-05
 Largest core mixing into a valence orbital is  1.93D-05
 Range of M.O.s used for correlation:    97  1408
 NBasis=  1408 NAE=   290 NBE=   290 NFC=    96 NFV=     0
 NROrb=   1312 NOA=   194 NOB=   194 NVA=  1118 NVB=  1118
 Leave Link  801 at Mon Aug  6 10:47:56 2018, MaxMem=   536870912 cpu:         5.7
 (Enter /local/isv/Gaussian/09_D01.PG/g09/l914.exe)
 RHF ground state
 MDV=   536870912 DFT=T DoStab=F Mixed=T DoRPA=F DoScal=F NonHer=F
 Would need an additional       2962098500000 words for in-memory AO integral storage.
 NEqPCM:  Using non-equilibrium solvation (IEInf=1, Eps=   4.2000, EpsInf=   1.7778)
 Inv3:  Mode=1 IEnd=   100676547.
 Iteration    1 A*A^-1 deviation from unit magnitude is 1.22D-14 for   1451.
 Iteration    1 A*A^-1 deviation from orthogonality  is 6.64D-15 for   5782   2527.
 Iteration    1 A^-1*A deviation from unit magnitude is 1.07D-14 for   2541.
 Iteration    1 A^-1*A deviation from orthogonality  is 2.90D-14 for   4940   4918.
 Making orbital integer symmetry assigments:
 Orbital symmetries:
       Occupied  (A) (A) (A) (A) (A) (A) (A) (A) (A) (A) (A) (A)
                 (A) (A) (A) (A) (A) (A) (A) (A) (A) (A) (A) (A)
                 (A) (A) (A) (A) (A) (A) (A) (A) (A) (A) (A) (A)
                 (A) (A) (A) (A) (A) (A) (A) (A) (A) (A) (A) (A)
                 (A) (A) (A) (A) (A) (A) (A) (A) (A) (A) (A) (A)
                 (A) (A) (A) (A) (A) (A) (A) (A) (A) (A) (A) (A)
                 (A) (A) (A) (A) (A) (A) (A) (A) (A) (A) (A) (A)
                 (A) (A) (A) (A) (A) (A) (A) (A) (A) (A) (A) (A)
                 (A) (A) (A) (A) (A) (A) (A) (A) (A) (A) (A) (A)
                 (A) (A) (A) (A) (A) (A) (A) (A) (A) (A) (A) (A)
                 (A) (A) (A) (A) (A) (A) (A) (A) (A) (A) (A) (A)
                 (A) (A) (A) (A) (A) (A) (A) (A) (A) (A) (A) (A)
                 (A) (A) (A) (A) (A) (A) (A) (A) (A) (A) (A) (A)
                 (A) (A) (A) (A) (A) (A) (A) (A) (A) (A) (A) (A)
                 (A) (A) (A) (A) (A) (A) (A) (A) (A) (A) (A) (A)
                 (A) (A) (A) (A) (A) (A) (A) (A) (A) (A) (A) (A)
                 (A) (A) (A) (A) (A) (A) (A) (A) (A) (A) (A) (A)
                 (A) (A) (A) (A) (A) (A) (A) (A) (A) (A) (A) (A)
                 (A) (A) (A) (A) (A) (A) (A) (A) (A) (A) (A) (A)
                 (A) (A) (A) (A) (A) (A) (A) (A) (A) (A) (A) (A)
                 (A) (A) (A) (A) (A) (A) (A) (A) (A) (A) (A) (A)
                 (A) (A) (A) (A) (A) (A) (A) (A) (A) (A) (A) (A)
                 (A) (A) (A) (A) (A) (A) (A) (A) (A) (A) (A) (A)
                 (A) (A) (A) (A) (A) (A) (A) (A) (A) (A) (A) (A)
                 (A) (A)
       Virtual   (A) (A) (A) (A) (A) (A) (A) (A) (A) (A) (A) (A)
                 (A) (A) (A) (A) (A) (A) (A) (A) (A) (A) (A) (A)
                 (A) (A) (A) (A) (A) (A) (A) (A) (A) (A) (A) (A)
                 (A) (A) (A) (A) (A) (A) (A) (A) (A) (A) (A) (A)
                 (A) (A) (A) (A) (A) (A) (A) (A) (A) (A) (A) (A)
                 (A) (A) (A) (A) (A) (A) (A) (A) (A) (A) (A) (A)
                 (A) (A) (A) (A) (A) (A) (A) (A) (A) (A) (A) (A)
                 (A) (A) (A) (A) (A) (A) (A) (A) (A) (A) (A) (A)
                 (A) (A) (A) (A) (A) (A) (A) (A) (A) (A) (A) (A)
                 (A) (A) (A) (A) (A) (A) (A) (A) (A) (A) (A) (A)
                 (A) (A) (A) (A) (A) (A) (A) (A) (A) (A) (A) (A)
                 (A) (A) (A) (A) (A) (A) (A) (A) (A) (A) (A) (A)
                 (A) (A) (A) (A) (A) (A) (A) (A) (A) (A) (A) (A)
                 (A) (A) (A) (A) (A) (A) (A) (A) (A) (A) (A) (A)
                 (A) (A) (A) (A) (A) (A) (A) (A) (A) (A) (A) (A)
                 (A) (A) (A) (A) (A) (A) (A) (A) (A) (A) (A) (A)
                 (A) (A) (A) (A) (A) (A) (A) (A) (A) (A) (A) (A)
                 (A) (A) (A) (A) (A) (A) (A) (A) (A) (A) (A) (A)
                 (A) (A) (A) (A) (A) (A) (A) (A) (A) (A) (A) (A)
                 (A) (A) (A) (A) (A) (A) (A) (A) (A) (A) (A) (A)
                 (A) (A) (A) (A) (A) (A) (A) (A) (A) (A) (A) (A)
                 (A) (A) (A) (A) (A) (A) (A) (A) (A) (A) (A) (A)
                 (A) (A) (A) (A) (A) (A) (A) (A) (A) (A) (A) (A)
                 (A) (A) (A) (A) (A) (A) (A) (A) (A) (A) (A) (A)
                 (A) (A) (A) (A) (A) (A) (A) (A) (A) (A) (A) (A)
                 (A) (A) (A) (A) (A) (A) (A) (A) (A) (A) (A) (A)
                 (A) (A) (A) (A) (A) (A) (A) (A) (A) (A) (A) (A)
                 (A) (A) (A) (A) (A) (A) (A) (A) (A) (A) (A) (A)
                 (A) (A) (A) (A) (A) (A) (A) (A) (A) (A) (A) (A)
                 (A) (A) (A) (A) (A) (A) (A) (A) (A) (A) (A) (A)
                 (A) (A) (A) (A) (A) (A) (A) (A) (A) (A) (A) (A)
                 (A) (A) (A) (A) (A) (A) (A) (A) (A) (A) (A) (A)
                 (A) (A) (A) (A) (A) (A) (A) (A) (A) (A) (A) (A)
                 (A) (A) (A) (A) (A) (A) (A) (A) (A) (A) (A) (A)
                 (A) (A) (A) (A) (A) (A) (A) (A) (A) (A) (A) (A)
                 (A) (A) (A) (A) (A) (A) (A) (A) (A) (A) (A) (A)
                 (A) (A) (A) (A) (A) (A) (A) (A) (A) (A) (A) (A)
                 (A) (A) (A) (A) (A) (A) (A) (A) (A) (A) (A) (A)
                 (A) (A) (A) (A) (A) (A) (A) (A) (A) (A) (A) (A)
                 (A) (A) (A) (A) (A) (A) (A) (A) (A) (A) (A) (A)
                 (A) (A) (A) (A) (A) (A) (A) (A) (A) (A) (A) (A)
                 (A) (A) (A) (A) (A) (A) (A) (A) (A) (A) (A) (A)
                 (A) (A) (A) (A) (A) (A) (A) (A) (A) (A) (A) (A)
                 (A) (A) (A) (A) (A) (A) (A) (A) (A) (A) (A) (A)
                 (A) (A) (A) (A) (A) (A) (A) (A) (A) (A) (A) (A)
                 (A) (A) (A) (A) (A) (A) (A) (A) (A) (A) (A) (A)
                 (A) (A) (A) (A) (A) (A) (A) (A) (A) (A) (A) (A)
                 (A) (A) (A) (A) (A) (A) (A) (A) (A) (A) (A) (A)
                 (A) (A) (A) (A) (A) (A) (A) (A) (A) (A) (A) (A)
                 (A) (A) (A) (A) (A) (A) (A) (A) (A) (A) (A) (A)
                 (A) (A) (A) (A) (A) (A) (A) (A) (A) (A) (A) (A)
                 (A) (A) (A) (A) (A) (A) (A) (A) (A) (A) (A) (A)
                 (A) (A) (A) (A) (A) (A) (A) (A) (A) (A) (A) (A)
                 (A) (A) (A) (A) (A) (A) (A) (A) (A) (A) (A) (A)
                 (A) (A) (A) (A) (A) (A) (A) (A) (A) (A) (A) (A)
                 (A) (A) (A) (A) (A) (A) (A) (A) (A) (A) (A) (A)
                 (A) (A) (A) (A) (A) (A) (A) (A) (A) (A) (A) (A)
                 (A) (A) (A) (A) (A) (A) (A) (A) (A) (A) (A) (A)
                 (A) (A) (A) (A) (A) (A) (A) (A) (A) (A) (A) (A)
                 (A) (A) (A) (A) (A) (A) (A) (A) (A) (A) (A) (A)
                 (A) (A) (A) (A) (A) (A) (A) (A) (A) (A) (A) (A)
                 (A) (A) (A) (A) (A) (A) (A) (A) (A) (A) (A) (A)
                 (A) (A) (A) (A) (A) (A) (A) (A) (A) (A) (A) (A)
                 (A) (A) (A) (A) (A) (A) (A) (A) (A) (A) (A) (A)
                 (A) (A) (A) (A) (A) (A) (A) (A) (A) (A) (A) (A)
                 (A) (A) (A) (A) (A) (A) (A) (A) (A) (A) (A) (A)
                 (A) (A) (A) (A) (A) (A) (A) (A) (A) (A) (A) (A)
                 (A) (A) (A) (A) (A) (A) (A) (A) (A) (A) (A) (A)
                 (A) (A) (A) (A) (A) (A) (A) (A) (A) (A) (A) (A)
                 (A) (A) (A) (A) (A) (A) (A) (A) (A) (A) (A) (A)
                 (A) (A) (A) (A) (A) (A) (A) (A) (A) (A) (A) (A)
                 (A) (A) (A) (A) (A) (A) (A) (A) (A) (A) (A) (A)
                 (A) (A) (A) (A) (A) (A) (A) (A) (A) (A) (A) (A)
                 (A) (A) (A) (A) (A) (A) (A) (A) (A) (A) (A) (A)
                 (A) (A) (A) (A) (A) (A) (A) (A) (A) (A) (A) (A)
                 (A) (A) (A) (A) (A) (A) (A) (A) (A) (A) (A) (A)
                 (A) (A) (A) (A) (A) (A) (A) (A) (A) (A) (A) (A)
                 (A) (A) (A) (A) (A) (A) (A) (A) (A) (A) (A) (A)
                 (A) (A) (A) (A) (A) (A) (A) (A) (A) (A) (A) (A)
                 (A) (A) (A) (A) (A) (A) (A) (A) (A) (A) (A) (A)
                 (A) (A) (A) (A) (A) (A) (A) (A) (A) (A) (A) (A)
                 (A) (A) (A) (A) (A) (A) (A) (A) (A) (A) (A) (A)
                 (A) (A) (A) (A) (A) (A) (A) (A) (A) (A) (A) (A)
                 (A) (A) (A) (A) (A) (A) (A) (A) (A) (A) (A) (A)
                 (A) (A) (A) (A) (A) (A) (A) (A) (A) (A) (A) (A)
                 (A) (A) (A) (A) (A) (A) (A) (A) (A) (A) (A) (A)
                 (A) (A) (A) (A) (A) (A) (A) (A) (A) (A) (A) (A)
                 (A) (A) (A) (A) (A) (A) (A) (A) (A) (A) (A) (A)
                 (A) (A) (A) (A) (A) (A) (A) (A) (A) (A) (A) (A)
                 (A) (A) (A) (A) (A) (A) (A) (A) (A) (A) (A) (A)
                 (A) (A) (A) (A) (A) (A) (A) (A) (A) (A) (A) (A)
                 (A) (A) (A) (A) (A) (A) (A) (A) (A) (A) (A) (A)
                 (A) (A) (A) (A) (A) (A) (A) (A) (A) (A) (A) (A)
                 (A) (A)
    80 initial guesses have been made.
 Convergence on wavefunction:    0.001000000000000
 Davidson Disk Diagonalization:  ConvIn= 1.00D-03 SkipCon=T Conv= 1.00D-03.
 Max sub-space:   320 roots to seek:    80 dimension of matrix:       433784
 Iteration     1 Dimension    80 NMult     0 NNew     80
 CISAX will form    14 AO SS matrices at one time.
 NMat=    14 NSing=    14 JSym2X= 0.
 FoFJK:  IHMeth= 1 ICntrl=       0 DoSepK=T KAlg= 0 I1Cent=   0 FoldK=F
 IRaf=         1 NMat=  28 IRICut=       1 DoRegI=T DoRafI=F ISym2E= 0.
 NMat=    14 NSing=    14 JSym2X= 0.
 NMat=    14 NSing=    14 JSym2X= 0.
 NMat=    14 NSing=    14 JSym2X= 0.
 NMat=    14 NSing=    14 JSym2X= 0.
 NMat=    10 NSing=    10 JSym2X= 0.
 New state      2 was old state      3
 New state      3 was old state      2
 New state      4 was old state      6
 New state      5 was old state      8
 New state      6 was old state      7
 New state      7 was old state     11
 New state      8 was old state     10
 New state      9 was old state     15
 New state     10 was old state     13
 New state     11 was old state     14
 New state     12 was old state     17
 New state     13 was old state     20
 New state     14 was old state      5
 New state     15 was old state      4
 New state     16 was old state     18
 New state     17 was old state     16
 New state     18 was old state     19
 New state     19 was old state      9
 New state     20 was old state     12
 Excitation Energies [eV] at current iteration:
 Root      1 :     2.636158344220197
 Root      2 :     2.677384995293738
 Root      3 :     2.785207206233181
 Root      4 :     2.837631696423966
 Root      5 :     2.844664587316969
 Root      6 :     2.852048493702523
 Root      7 :     2.855260865345603
 Root      8 :     2.864577098206453
 Root      9 :     2.869458848921748
 Root     10 :     2.874854712578899
 Root     11 :     2.886414219867327
 Root     12 :     2.890178543815092
 Root     13 :     2.898091217157881
 Root     14 :     3.314516383976772
 Root     15 :     3.353701250370320
 Root     16 :     3.428986288578901
 Root     17 :     3.432696089377218
 Root     18 :     3.453549616866828
 Root     19 :     3.580143532442314
 Root     20 :     3.614363759160500
 Root     21 :     3.899517916324771
 Root     22 :     3.909196197680413
 Root     23 :     3.918692476295611
 Root     24 :     3.920660023120890
 Root     25 :     3.958356755892376
 Root     26 :     3.966127130452306
 Root     27 :     3.974325587830027
 Root     28 :     3.976642065387653
 Root     29 :     3.983751279643180
 Root     30 :     3.996908963533882
 Root     31 :     4.009419537702717
 Root     32 :     4.026170709163651
 Root     33 :     4.030150150685718
 Root     34 :     4.038181552008773
 Root     35 :     4.051685622027283
 Root     36 :     4.071417549057735
 Root     37 :     4.091341944070332
 Root     38 :     4.103326283950777
 Root     39 :     4.104281079002630
 Root     40 :     4.116820886170748
 Root     41 :     4.143961167864866
 Root     42 :     4.146719646318366
 Root     43 :     4.158503597227055
 Root     44 :     4.176259454453962
 Root     45 :     4.193121654116858
 Root     46 :     4.431410542587131
 Root     47 :     4.442000848381422
 Root     48 :     4.456545901451073
 Root     49 :     4.478016329624042
 Root     50 :     4.485834539603229
 Root     51 :     4.512252625710860
 Root     52 :     4.536069303153321
 Root     53 :     4.562321651117422
 Root     54 :     4.607148397373484
 Root     55 :     4.659352773303796
 Root     56 :     4.667299689892072
 Root     57 :     4.672099352659544
 Root     58 :     4.694524704388402
 Root     59 :     4.698455190010359
 Root     60 :     4.710441374187439
 Root     61 :     4.720615665369384
 Root     62 :     4.724279638268260
 Root     63 :     4.733281506077078
 Root     64 :     4.766090243386741
 Root     65 :     4.778853245648511
 Root     66 :     4.812656993762111
 Root     67 :     4.824020027574054
 Root     68 :     4.842229250062148
 Root     69 :     4.894312595397784
 Root     70 :     4.941634063311675
 Root     71 :     4.973949566410858
 Root     72 :     4.980635785242841
 Root     73 :     5.005768955287106
 Root     74 :     5.017906069262816
 Root     75 :     5.034071117733583
 Root     76 :     5.076707519116800
 Root     77 :     5.112731586485878
 Root     78 :     6.132139217552505
 Root     79 :     6.190923593945981
 Root     80 :     6.259670764276117
 Iteration     2 Dimension   160 NMult    80 NNew     80
 CISAX will form    14 AO SS matrices at one time.
 NMat=    14 NSing=    14 JSym2X= 0.
 NMat=    14 NSing=    14 JSym2X= 0.
 NMat=    14 NSing=    14 JSym2X= 0.
 NMat=    14 NSing=    14 JSym2X= 0.
 NMat=    14 NSing=    14 JSym2X= 0.
 NMat=    10 NSing=    10 JSym2X= 0.
 Root      1 not converged, maximum delta is    0.044271356346537
 Root      2 not converged, maximum delta is    0.142295409316775
 Root      3 not converged, maximum delta is    0.404098692708530
 New state      4 was old state      8
 Root      4 not converged, maximum delta is    0.221572405171608
 New state      5 was old state      9
 Root      5 not converged, maximum delta is    0.187840834535562
 New state      6 was old state      4
 Root      6 not converged, maximum delta is    0.315752390764844
 New state      7 was old state      5
 Root      7 not converged, maximum delta is    0.277326357462513
 New state      8 was old state     12
 Root      8 not converged, maximum delta is    0.369340091246200
 New state      9 was old state     11
 Root      9 not converged, maximum delta is    0.375364623228503
 Root     10 not converged, maximum delta is    0.261483132084233
 New state     11 was old state      7
 Root     11 not converged, maximum delta is    0.334499197008085
 New state     12 was old state      6
 Root     12 not converged, maximum delta is    0.417564474876066
 Root     13 not converged, maximum delta is    0.382186883800209
 New state     14 was old state     19
 Root     14 not converged, maximum delta is    0.383541584983808
 New state     15 was old state     14
 Root     15 not converged, maximum delta is    0.430696540775504
 New state     16 was old state     17
 Root     16 not converged, maximum delta is    0.299331241952003
 New state     17 was old state     16
 Root     17 not converged, maximum delta is    0.249413443017477
 New state     18 was old state     20
 Root     18 not converged, maximum delta is    0.407671713497238
 New state     19 was old state     15
 Root     19 not converged, maximum delta is    0.441447296160721
 New state     20 was old state     18
 Root     20 not converged, maximum delta is    0.216924238998036
 Excitation Energies [eV] at current iteration:
 Root      1 :     2.598946863120020   Change is   -0.037211481100177
 Root      2 :     2.635340515561299   Change is   -0.042044479732439
 Root      3 :     2.680894984819761   Change is   -0.104312221413419
 Root      4 :     2.691358675521954   Change is   -0.173218422684499
 Root      5 :     2.699225999957992   Change is   -0.170232848963757
 Root      6 :     2.716261768054408   Change is   -0.121369928369558
 Root      7 :     2.729858446532973   Change is   -0.114806140783996
 Root      8 :     2.731657040177339   Change is   -0.158521503637753
 Root      9 :     2.743004712776466   Change is   -0.143409507090860
 Root     10 :     2.748131809462666   Change is   -0.126722903116233
 Root     11 :     2.752523690910207   Change is   -0.102737174435396
 Root     12 :     2.758987087511494   Change is   -0.093061406191028
 Root     13 :     2.765504137902635   Change is   -0.132587079255246
 Root     14 :     2.773921988237948   Change is   -0.806221544204366
 Root     15 :     2.814558323601644   Change is   -0.499958060375128
 Root     16 :     3.082449290710720   Change is   -0.350246798666498
 Root     17 :     3.083448582055687   Change is   -0.345537706523213
 Root     18 :     3.092373790473386   Change is   -0.521989968687114
 Root     19 :     3.095811028158810   Change is   -0.257890222211510
 Root     20 :     3.107788777632597   Change is   -0.345760839234230
 Root     21 :     3.673209859091204   Change is   -0.310541420551976
 Root     22 :     3.685671423022871   Change is   -0.288654164807156
 Root     23 :     3.701979464365218   Change is   -0.274662601022435
 Root     24 :     3.758842873401075   Change is   -0.140675042923695
 Root     25 :     3.775953126360772   Change is   -0.133243071319640
 Root     26 :     3.795126630104731   Change is   -0.125533393016159
 Root     27 :     3.799750052550113   Change is   -0.118942423745499
 Root     28 :     3.820775464805831   Change is   -0.137581291086545
 Root     29 :     3.828516585847832   Change is   -0.168392377686049
 Root     30 :     3.835294351238137   Change is   -0.190876357925514
 Root     31 :     3.844898001008705   Change is   -0.185252149677013
 Root     32 :     3.858543502106802   Change is   -0.212874046950933
 Root     33 :     3.879499332858495   Change is   -0.129920204844223
 Root     34 :     3.890079881156256   Change is   -0.076047249296051
 Root     35 :     3.917901361373866   Change is   -0.186379717628764
 Root     36 :     3.924815435869453   Change is   -0.192005450301295
 Root     37 :     3.937788114915056   Change is   -0.208931531403309
 Root     38 :     3.955841270738782   Change is   -0.202662326488274
 Root     39 :     3.972443838995425   Change is   -0.065737713013348
 Root     40 :     4.007040403346599   Change is   -0.044645218680685
 Root     41 :     4.063275278963785   Change is   -0.028066665106547
 Root     42 :     4.090663486779231   Change is   -0.012662797171546
 Root     43 :     4.106595195996673   Change is   -0.037365971868193
 Root     44 :     4.120678420393507   Change is   -0.055581034060456
 Root     45 :     4.151750554054871   Change is   -0.041371100061987
 Root     46 :     4.286019815351606   Change is   -0.226232810359254
 Root     47 :     4.301326201555680   Change is   -0.234743101597640
 Root     48 :     4.315549853408423   Change is   -0.246771797709000
 Root     49 :     4.335497859569346   Change is   -0.271650537804138
 Root     50 :     4.344329475571836   Change is   -0.087081067015295
 Root     51 :     4.355476255546517   Change is   -0.086524592834905
 Root     52 :     4.364882921133148   Change is   -0.091662980317925
 Root     53 :     4.371855617402506   Change is   -0.106160712221536
 Root     54 :     4.390550978028634   Change is   -0.095283561574595
 Root     55 :     4.532616741455413   Change is   -0.139482611204132
 Root     56 :     4.535239292779589   Change is   -0.124113480524208
 Root     57 :     4.541017953675381   Change is   -0.126281736216692
 Root     58 :     4.584721533820471   Change is   -0.239298493753583
 Root     59 :     4.592058576570463   Change is   -0.484648942546337
 Root     60 :     4.606879002814992   Change is   -0.091576187195367
 Root     61 :     4.615863026835432   Change is   -0.117418479241646
 Root     62 :     4.619582102475090   Change is   -0.074942601913312
 Root     63 :     4.623499337856365   Change is   -0.142590905530376
 Root     64 :     4.633280682044007   Change is   -0.090998956224253
 Root     65 :     4.636700688821448   Change is   -0.142152556827064
 Root     66 :     4.637613292307281   Change is   -0.083002373062103
 Root     67 :     4.643797222568044   Change is   -0.250515372829740
 Root     68 :     4.659435293317587   Change is   -0.346333661969519
 Root     69 :     4.707797489442972   Change is   -0.134431760619176
 Root     70 :     4.790076846762788   Change is   -0.151557216548887
 Root     71 :     4.805739393850642   Change is   -1.453931370425475
 Root     72 :     4.824566513337287   Change is   -0.156069271905554
 Root     73 :     4.845379750200379   Change is   -0.128569816210479
 Root     74 :     4.852052283110774   Change is    0.039395289348662
 Root     75 :     4.856872909160140   Change is   -0.255858677325738
 Root     76 :     4.869548074142680   Change is   -1.321375519803302
 Root     77 :     4.887374715535835   Change is   -0.130531353726981
 Root     78 :     4.903953352152167
 Root     79 :     5.000631683211044   Change is   -0.033439434522539
 Root     80 :     5.025553678607138
 Iteration     3 Dimension   180 NMult   160 NNew     20
 CISAX will form    10 AO SS matrices at one time.
 NMat=    10 NSing=    10 JSym2X= 0.
 NMat=    10 NSing=    10 JSym2X= 0.
 Root      1 not converged, maximum delta is    0.027559244876450
 Root      2 not converged, maximum delta is    0.062741846160285
 Root      3 not converged, maximum delta is    0.043240512075998
 Root      4 not converged, maximum delta is    0.062374119688036
 Root      5 not converged, maximum delta is    0.064712544726143
 Root      6 not converged, maximum delta is    0.049682376042831
 New state      7 was old state      8
 Root      7 not converged, maximum delta is    0.073663402116127
 New state      8 was old state      7
 Root      8 not converged, maximum delta is    0.122656378622958
 New state      9 was old state     14
 Root      9 not converged, maximum delta is    0.263930666778088
 New state     10 was old state      9
 Root     10 not converged, maximum delta is    0.248138237532254
 New state     11 was old state     10
 Root     11 not converged, maximum delta is    0.258647864699327
 New state     12 was old state     11
 Root     12 not converged, maximum delta is    0.444627661184770
 Root     13 not converged, maximum delta is    0.297727341757859
 New state     14 was old state     12
 Root     14 not converged, maximum delta is    0.487353667670305
 Root     15 not converged, maximum delta is    0.157725840028830
 Root     16 not converged, maximum delta is    0.022546850278444
 Root     17 not converged, maximum delta is    0.018332568369429
 Root     18 not converged, maximum delta is    0.052850631606684
 Root     19 not converged, maximum delta is    0.064905998891112
 Root     20 not converged, maximum delta is    0.025902217342951
 Excitation Energies [eV] at current iteration:
 Root      1 :     2.593719575121658   Change is   -0.005227287998361
 Root      2 :     2.622006816504039   Change is   -0.013333699057260
 Root      3 :     2.647312012447515   Change is   -0.033582972372246
 Root      4 :     2.656276013108049   Change is   -0.035082662413905
 Root      5 :     2.664286006148275   Change is   -0.034939993809717
 Root      6 :     2.683303059386310   Change is   -0.032958708668098
 Root      7 :     2.695657538981131   Change is   -0.035999501196208
 Root      8 :     2.696394044315177   Change is   -0.033464402217796
 Root      9 :     2.709245491779256   Change is   -0.064676496458692
 Root     10 :     2.714154391610986   Change is   -0.028850321165480
 Root     11 :     2.721474090773053   Change is   -0.026657718689613
 Root     12 :     2.725703053859429   Change is   -0.026820637050778
 Root     13 :     2.733862628297356   Change is   -0.031641509605279
 Root     14 :     2.734220680663358   Change is   -0.024766406848136
 Root     15 :     2.799442665382187   Change is   -0.015115658219458
 Root     16 :     3.052009802778982   Change is   -0.030439487931738
 Root     17 :     3.053379364744132   Change is   -0.030069217311556
 Root     18 :     3.060593034476601   Change is   -0.031780755996785
 Root     19 :     3.064865210180878   Change is   -0.030945817977932
 Root     20 :     3.077340006183789   Change is   -0.030448771448808
 Iteration     4 Dimension   200 NMult   180 NNew     20
 CISAX will form    10 AO SS matrices at one time.
 NMat=    10 NSing=    10 JSym2X= 0.
 NMat=    10 NSing=    10 JSym2X= 0.
 Root      1 not converged, maximum delta is    0.006746360429066
 Root      2 not converged, maximum delta is    0.020674604996782
 Root      3 not converged, maximum delta is    0.008434902394380
 Root      4 not converged, maximum delta is    0.027754459036264
 Root      5 not converged, maximum delta is    0.026384828466944
 Root      6 not converged, maximum delta is    0.020565960794203
 Root      7 not converged, maximum delta is    0.103272672511151
 Root      8 not converged, maximum delta is    0.085119778305835
 Root      9 not converged, maximum delta is    0.076873586871415
 Root     10 not converged, maximum delta is    0.111218410709973
 Root     11 not converged, maximum delta is    0.049093454607071
 Root     12 not converged, maximum delta is    0.077875691905658
 New state     13 was old state     14
 Root     13 not converged, maximum delta is    0.067897609461107
 New state     14 was old state     13
 Root     14 not converged, maximum delta is    0.046641760991472
 Root     15 not converged, maximum delta is    0.019180823526868
 Root     16 not converged, maximum delta is    0.004761858251956
 Root     17 not converged, maximum delta is    0.004599751001417
 Root     18 not converged, maximum delta is    0.010390391697216
 Root     19 not converged, maximum delta is    0.012638903659985
 Root     20 not converged, maximum delta is    0.004895637960624
 Excitation Energies [eV] at current iteration:
 Root      1 :     2.593209283319936   Change is   -0.000510291801722
 Root      2 :     2.620561856781108   Change is   -0.001444959722931
 Root      3 :     2.646763801967853   Change is   -0.000548210479663
 Root      4 :     2.655201108863155   Change is   -0.001074904244894
 Root      5 :     2.663368430351778   Change is   -0.000917575796497
 Root      6 :     2.682176209458853   Change is   -0.001126849927457
 Root      7 :     2.694779853869757   Change is   -0.000877685111374
 Root      8 :     2.695255226051016   Change is   -0.001138818264161
 Root      9 :     2.700627836140415   Change is   -0.008617655638841
 Root     10 :     2.710870974244951   Change is   -0.003283417366035
 Root     11 :     2.719185276460231   Change is   -0.002288814312823
 Root     12 :     2.723965136561267   Change is   -0.001737917298162
 Root     13 :     2.732004149724767   Change is   -0.002216530938591
 Root     14 :     2.732569633667055   Change is   -0.001292994630302
 Root     15 :     2.798316883333838   Change is   -0.001125782048348
 Root     16 :     3.048528510945585   Change is   -0.003481291833398
 Root     17 :     3.049763317371790   Change is   -0.003616047372342
 Root     18 :     3.056651309759547   Change is   -0.003941724717053
 Root     19 :     3.061124027649671   Change is   -0.003741182531207
 Root     20 :     3.073681760875567   Change is   -0.003658245308222
 Iteration     5 Dimension   220 NMult   200 NNew     20
 CISAX will form    10 AO SS matrices at one time.
 NMat=    10 NSing=    10 JSym2X= 0.
 NMat=    10 NSing=    10 JSym2X= 0.
 Root      1 has converged.
 Root      2 not converged, maximum delta is    0.001737820109631
 Root      3 has converged.
 Root      4 not converged, maximum delta is    0.002493686439244
 Root      5 not converged, maximum delta is    0.002447085735491
 Root      6 not converged, maximum delta is    0.002064135867475
 Root      7 not converged, maximum delta is    0.023729848418522
 Root      8 not converged, maximum delta is    0.015184105722143
 Root      9 not converged, maximum delta is    0.010841461879010
 Root     10 not converged, maximum delta is    0.006882988298208
 Root     11 not converged, maximum delta is    0.004864039910364
 Root     12 not converged, maximum delta is    0.005647031394872
 Root     13 not converged, maximum delta is    0.004248439996837
 Root     14 not converged, maximum delta is    0.001432950742099
 Root     15 not converged, maximum delta is    0.001748733052497
 Root     16 not converged, maximum delta is    0.003014733466027
 Root     17 not converged, maximum delta is    0.003096008588224
 Root     18 not converged, maximum delta is    0.002622458904129
 Root     19 not converged, maximum delta is    0.002292824185423
 Root     20 not converged, maximum delta is    0.002803880760897
 Excitation Energies [eV] at current iteration:
 Root      1 :     2.593177089501251   Change is   -0.000032193818685
 Root      2 :     2.620430670252009   Change is   -0.000131186529099
 Root      3 :     2.646727118330258   Change is   -0.000036683637594
 Root      4 :     2.655110087559080   Change is   -0.000091021304075
 Root      5 :     2.663290521292494   Change is   -0.000077909059284
 Root      6 :     2.682093936518413   Change is   -0.000082272940441
 Root      7 :     2.694679026578802   Change is   -0.000100827290955
 Root      8 :     2.695175798906971   Change is   -0.000079427144044
 Root      9 :     2.699880931016085   Change is   -0.000746905124329
 Root     10 :     2.710601604348733   Change is   -0.000269369896218
 Root     11 :     2.719045087194389   Change is   -0.000140189265842
 Root     12 :     2.723866746376807   Change is   -0.000098390184461
 Root     13 :     2.731865668991861   Change is   -0.000138480732906
 Root     14 :     2.732499832503513   Change is   -0.000069801163541
 Root     15 :     2.798221800723522   Change is   -0.000095082610316
 Root     16 :     3.047990302128588   Change is   -0.000538208816996
 Root     17 :     3.049213810467212   Change is   -0.000549506904579
 Root     18 :     3.056071685161766   Change is   -0.000579624597781
 Root     19 :     3.060560290473477   Change is   -0.000563737176195
 Root     20 :     3.073115481068046   Change is   -0.000566279807521
 Iteration     6 Dimension   238 NMult   220 NNew     18
 CISAX will form     9 AO SS matrices at one time.
 NMat=     9 NSing=     9 JSym2X= 0.
 NMat=     9 NSing=     9 JSym2X= 0.
 Root      1 has converged.
 Root      2 has converged.
 Root      3 has converged.
 Root      4 has converged.
 Root      5 has converged.
 Root      6 has converged.
 Root      7 not converged, maximum delta is    0.002371860696687
 Root      8 not converged, maximum delta is    0.001576951556747
 Root      9 not converged, maximum delta is    0.001028285043935
 Root     10 has converged.
 Root     11 has converged.
 Root     12 has converged.
 Root     13 has converged.
 Root     14 has converged.
 Root     15 has converged.
 Root     16 has converged.
 Root     17 has converged.
 Root     18 has converged.
 Root     19 has converged.
 Root     20 has converged.
 Excitation Energies [eV] at current iteration:
 Root      1 :     2.593175318879885   Change is   -0.000001770621366
 Root      2 :     2.620417663306224   Change is   -0.000013006945785
 Root      3 :     2.646725725693208   Change is   -0.000001392637050
 Root      4 :     2.655099534194871   Change is   -0.000010553364209
 Root      5 :     2.663281267853432   Change is   -0.000009253439063
 Root      6 :     2.682085878931573   Change is   -0.000008057586840
 Root      7 :     2.694667621692614   Change is   -0.000011404886188
 Root      8 :     2.695166784598175   Change is   -0.000009014308796
 Root      9 :     2.699815230140298   Change is   -0.000065700875787
 Root     10 :     2.710576154300292   Change is   -0.000025450048441
 Root     11 :     2.719033054533614   Change is   -0.000012032660775
 Root     12 :     2.723858818142833   Change is   -0.000007928233973
 Root     13 :     2.731851798497028   Change is   -0.000013870494833
 Root     14 :     2.732494021958064   Change is   -0.000005810545449
 Root     15 :     2.798212267120146   Change is   -0.000009533603376
 Root     16 :     3.047954267656609   Change is   -0.000036034471979
 Root     17 :     3.049175105572455   Change is   -0.000038704894757
 Root     18 :     3.056030790556274   Change is   -0.000040894605492
 Root     19 :     3.060521375185226   Change is   -0.000038915288250
 Root     20 :     3.073075869016884   Change is   -0.000039612051163
[...]
 Alpha virt. eigenvalues --    1.31626   1.31856   1.31970   1.32403   1.32531
 Alpha virt. eigenvalues --    1.32728   1.33341   1.33716   1.34350   1.34498
 Alpha virt. eigenvalues --    1.35185   1.35952   1.36671   1.37455   1.37522
 Alpha virt. eigenvalues --    1.37626   1.37779   1.38366   1.38976   1.39702
 Alpha virt. eigenvalues --    1.40547   1.40911   1.41388   1.41713   1.41948
 Alpha virt. eigenvalues --    1.42183   1.42492   1.42693   1.42929   1.43034
 Alpha virt. eigenvalues --    1.43358   1.43460   1.43725   1.44249   1.44644
 Alpha virt. eigenvalues --    1.44925   1.45243   1.46855   1.47620   1.48191
 Alpha virt. eigenvalues --    1.48948   1.49148   1.49488   1.50056   1.50294
 Alpha virt. eigenvalues --    1.50626   1.50858   1.51121   1.51666   1.51877
 Alpha virt. eigenvalues --    1.51999   1.52068   1.52137   1.52257   1.52606
 Alpha virt. eigenvalues --    1.52877   1.52974   1.53279   1.53468   1.53691
 Alpha virt. eigenvalues --    1.53941   1.54300   1.55010   1.55606   1.55699
 Alpha virt. eigenvalues --    1.56025   1.56278   1.56511   1.57107   1.57393
 Alpha virt. eigenvalues --    1.57950   1.58228   1.58315   1.58586   1.59038
 Alpha virt. eigenvalues --    1.59220   1.59773   1.59944   1.60064   1.60465
 Alpha virt. eigenvalues --    1.60810   1.60909   1.61241   1.61779   1.62753
 Alpha virt. eigenvalues --    1.63671   1.63904   1.63989   1.64155   1.64467
 Alpha virt. eigenvalues --    1.64665   1.65415   1.66462   1.67756   1.68978
 Alpha virt. eigenvalues --    1.69487   1.69660   1.70505   1.72239   1.72302
 Alpha virt. eigenvalues --    1.72438   1.72506   1.72542   1.72913   1.73275
 Alpha virt. eigenvalues --    1.73282   1.74116   1.75624   1.75655   1.75753
 Alpha virt. eigenvalues --    1.76293   1.76680   1.76827   1.77204   1.77246
 Alpha virt. eigenvalues --    1.77359   1.77412   1.77750   1.77810   1.78143
 Alpha virt. eigenvalues --    1.78281   1.78724   1.79371   1.79612   1.79768
 Alpha virt. eigenvalues --    1.80075   1.80237   1.80380   1.80459   1.80549
 Alpha virt. eigenvalues --    1.80739   1.80826   1.81190   1.81382   1.81635
 Alpha virt. eigenvalues --    1.81777   1.82056   1.82186   1.82635   1.83135
 Alpha virt. eigenvalues --    1.83313   1.83526   1.83636   1.84153   1.85001
 Alpha virt. eigenvalues --    1.85930   1.86014   1.86224   1.86798   1.87121
 Alpha virt. eigenvalues --    1.87210   1.87483   1.87591   1.87683   1.87750
 Alpha virt. eigenvalues --    1.88114   1.88183   1.88872   1.89278   1.89477
 Alpha virt. eigenvalues --    1.89619   1.89846   1.90346   1.90557   1.91029
 Alpha virt. eigenvalues --    1.91941   1.92267   1.92664   1.93444   1.93790
 Alpha virt. eigenvalues --    1.94109   1.94564   1.94710   1.95083   1.95337
 Alpha virt. eigenvalues --    1.95749   1.96170   1.96495   1.96704   1.96800
 Alpha virt. eigenvalues --    1.97152   1.98049   1.98180   1.98502   1.98906
 Alpha virt. eigenvalues --    1.99461   1.99592   2.00060   2.00468   2.00662
 Alpha virt. eigenvalues --    2.00992   2.01248   2.02029   2.02218   2.02455
 Alpha virt. eigenvalues --    2.03565   2.03901   2.04015   2.04418   2.04586
 Alpha virt. eigenvalues --    2.04684   2.04796   2.04935   2.04984   2.05258
 Alpha virt. eigenvalues --    2.05419   2.05849   2.06013   2.06233   2.06304
 Alpha virt. eigenvalues --    2.06323   2.06411   2.06429   2.06717   2.06750
 Alpha virt. eigenvalues --    2.06885   2.07055   2.07205   2.07245   2.07405
 Alpha virt. eigenvalues --    2.07742   2.08033   2.08407   2.08684   2.08837
 Alpha virt. eigenvalues --    2.08959   2.09313   2.09465   2.09563   2.10192
 Alpha virt. eigenvalues --    2.10251   2.10703   2.10854   2.10966   2.11022
 Alpha virt. eigenvalues --    2.11240   2.11549   2.11850   2.12081   2.12345
 Alpha virt. eigenvalues --    2.12459   2.12916   2.13532   2.14257   2.15172
 Alpha virt. eigenvalues --    2.15424   2.16089   2.16437   2.16788   2.17020
 Alpha virt. eigenvalues --    2.17748   2.18085   2.18617   2.19284   2.19381
 Alpha virt. eigenvalues --    2.19920   2.21094   2.21250   2.21536   2.22575
 Alpha virt. eigenvalues --    2.23499   2.23776   2.24139   2.24372   2.24835
 Alpha virt. eigenvalues --    2.25347   2.25394   2.25653   2.25816   2.25909
 Alpha virt. eigenvalues --    2.26406   2.27072   2.27396   2.28029   2.28307
 Alpha virt. eigenvalues --    2.29011   2.29122   2.29597   2.29757   2.29983
 Alpha virt. eigenvalues --    2.30008   2.30319   2.30388   2.30703   2.30762
 Alpha virt. eigenvalues --    2.30880   2.31337   2.31530   2.31547   2.33033
 Alpha virt. eigenvalues --    2.33519   2.34298   2.34352   2.34457   2.34621
 Alpha virt. eigenvalues --    2.34760   2.35218   2.35316   2.35966   2.36754
 Alpha virt. eigenvalues --    2.37017   2.37411   2.37420   2.37672   2.37892
 Alpha virt. eigenvalues --    2.37950   2.38176   2.38441   2.38482   2.38820
 Alpha virt. eigenvalues --    2.39020   2.39209   2.39261   2.39395   2.39604
 Alpha virt. eigenvalues --    2.39828   2.40145   2.40362   2.40530   2.41640
 Alpha virt. eigenvalues --    2.42130   2.43689   2.44457   2.44795   2.45158
 Alpha virt. eigenvalues --    2.45175   2.45665   2.46120   2.46790   2.47768
 Alpha virt. eigenvalues --    2.50775   2.51076   2.51182   2.51631   2.51848
 Alpha virt. eigenvalues --    2.52014   2.52351   2.52521   2.52681   2.53045
 Alpha virt. eigenvalues --    2.53140   2.53527   2.54068   2.54254   2.54463
 Alpha virt. eigenvalues --    2.55110   2.55497   2.55606   2.55810   2.56052
 Alpha virt. eigenvalues --    2.56230   2.56396   2.56625   2.56732   2.56852
 Alpha virt. eigenvalues --    2.57308   2.57670   2.58377   2.58631   2.60456
 Alpha virt. eigenvalues --    2.60761   2.60963   2.61732   2.62955   2.63885
 Alpha virt. eigenvalues --    2.64262   2.64605   2.65369   2.65808   2.66283
 Alpha virt. eigenvalues --    2.66671   2.66836   2.67002   2.67149   2.67447
 Alpha virt. eigenvalues --    2.67566   2.67600   2.67764   2.67940   2.68305
 Alpha virt. eigenvalues --    2.68983   2.69481   2.69529   2.69735   2.70107
 Alpha virt. eigenvalues --    2.70213   2.70575   2.70817   2.71102   2.71169
 Alpha virt. eigenvalues --    2.71649   2.71999   2.72118   2.72548   2.72639
 Alpha virt. eigenvalues --    2.72860   2.73192   2.73343   2.73939   2.74061
 Alpha virt. eigenvalues --    2.74577   2.74820   2.75029   2.75088   2.75466
 Alpha virt. eigenvalues --    2.75553   2.76232   2.76390   2.77102   2.77629
 Alpha virt. eigenvalues --    2.78675   2.78740   2.79027   2.79124   2.79323
 Alpha virt. eigenvalues --    2.79517   2.79673   2.80132   2.80330   2.80459
 Alpha virt. eigenvalues --    2.80629   2.81159   2.81484   2.82642   2.83196
 Alpha virt. eigenvalues --    2.83704   2.83766   2.84499   2.84789   2.85017
 Alpha virt. eigenvalues --    2.85170   2.86634   2.87258   2.87648   2.88791
 Alpha virt. eigenvalues --    2.89102   2.89227   2.89242   2.89350   2.90255
 Alpha virt. eigenvalues --    2.90327   2.91350   2.91484   2.91635   2.92553
 Alpha virt. eigenvalues --    2.92813   2.92918   2.92996   2.93174   2.93208
 Alpha virt. eigenvalues --    2.93514   2.93659   2.94032   2.94330   2.94718
 Alpha virt. eigenvalues --    2.95186   2.95272   2.95452   2.95979   2.96526
 Alpha virt. eigenvalues --    2.97018   2.97593   2.97719   2.98588   2.99210
 Alpha virt. eigenvalues --    3.00555   3.00657   3.00763   3.01969   3.02025
 Alpha virt. eigenvalues --    3.03454   3.03707   3.04239   3.04505   3.04860
 Alpha virt. eigenvalues --    3.05132   3.05466   3.06063   3.06284   3.07960
 Alpha virt. eigenvalues --    3.08697   3.09084   3.09655   3.10050   3.10382
 Alpha virt. eigenvalues --    3.10548   3.12195   3.14632   3.18242   3.18785
 Alpha virt. eigenvalues --    3.18968   3.19381   3.20869   3.21024   3.21060
 Alpha virt. eigenvalues --    3.21364   3.27384   3.27483   3.28459   3.28768
 Alpha virt. eigenvalues --    3.31534   3.31954   3.32704   3.35978   3.36063
 Alpha virt. eigenvalues --    3.36123   3.36307   3.36463   3.36565   3.40697
 Alpha virt. eigenvalues --    3.41274   3.43117   3.48262   3.48370   3.48407
 Alpha virt. eigenvalues --    3.48624   3.50429   3.57573   3.57592   3.57795
 Alpha virt. eigenvalues --    3.59600   3.59746   3.63433   3.63881   3.64466
 Alpha virt. eigenvalues --    3.72597   3.73582   4.10589   4.10758   4.10861
 Alpha virt. eigenvalues --    4.11576   4.12421   4.12462   4.13642   4.13718
 Alpha virt. eigenvalues --    4.14140   4.16113   4.16559   4.17164   4.18208
 Alpha virt. eigenvalues --    4.18487   4.19495   4.19903   4.20553   4.21093
 Alpha virt. eigenvalues --    4.21513   4.21926   4.22942   4.23657   4.24915
 Alpha virt. eigenvalues --    4.26080   4.26937   4.27269   4.27873   4.28365
 Alpha virt. eigenvalues --    4.28725   4.29033   4.30483   4.31728   4.32672
 Alpha virt. eigenvalues --    4.33119   4.33938   4.34646   4.35742   4.36373
 Alpha virt. eigenvalues --    4.37563   4.38601   4.39159   4.39276   4.40576
 Alpha virt. eigenvalues --    4.42174   4.42628   4.43387   4.44758   4.46303
 Alpha virt. eigenvalues --    4.46709   4.47397   4.48422   4.48721   4.48956
 Alpha virt. eigenvalues --    4.50152   4.54336   4.54847   4.55629   4.58472
 Alpha virt. eigenvalues --    4.58845   4.59358   4.61825   4.64635   4.65541
 Alpha virt. eigenvalues --    4.66151   4.67107   4.69081   4.73460   4.73685
 Alpha virt. eigenvalues --    4.73961   4.74672   4.75147   4.81244   4.86951
 Alpha virt. eigenvalues --    4.88583   4.89314   4.90156   4.90647   4.90795
 Alpha virt. eigenvalues --    4.91226   5.00574   5.00723   5.00833   5.01138
 Alpha virt. eigenvalues --    5.01680   5.21725   5.21889   5.21944   5.22291
 Alpha virt. eigenvalues --    5.37959   5.38247   5.38600
          Condensed to atoms (all electrons):
 Mulliken charges:
               1
     1  C   -0.144742
     2  C   -0.145184
     3  C   -0.186077
     4  C    0.058048
     5  C   -0.186897
     6  C    0.053461
     7  C    0.416162
     8  N   -0.536141
     9  H    0.161264
    10  H    0.161161
    11  H    0.171957
    12  H    0.171978
    13  C    0.410485
    14  N   -0.494768
    15  C   -0.144595
    16  C   -0.145550
    17  C   -0.185778
    18  C    0.054721
    19  C   -0.186328
    20  C    0.054401
    21  C    0.412662
    22  N   -0.538272
    23  H    0.161267
    24  H    0.161356
    25  H    0.171871
    26  H    0.171937
    27  B    0.551608
    28  C    0.414704
    29  N   -0.496723
    30  C   -0.146690
    31  C   -0.145274
    32  C   -0.186126
    33  C    0.055868
    34  C   -0.187453
    35  C    0.053905
    36  C    0.413907
    37  N   -0.539180
    38  H    0.161176
    39  H    0.160971
    40  H    0.171498
    41  H    0.171996
    42  C    0.416547
    43  N   -0.494788
    44  Cl  -0.250325
    45  C   -0.000882
    46  C   -0.003786
    47  C   -0.002053
    48  C   -0.000653
    49  C   -0.000875
    50  C   -0.000644
    51  C   -0.000678
    52  C   -0.000564
    53  C   -0.000506
    54  C   -0.003619
    55  C   -0.002616
    56  C   -0.006872
    57  C    0.008580
    58  C    0.017469
    59  C    0.001026
    60  C   -0.004315
    61  C   -0.005111
    62  C    0.001696
    63  C   -0.001114
    64  C   -0.012589
    65  C   -0.015509
    66  C    0.013508
    67  C    0.014313
    68  C   -0.005965
    69  C   -0.001539
    70  C   -0.001082
    71  C   -0.000562
    72  C   -0.000688
    73  C   -0.000453
    74  C   -0.000383
    75  C   -0.000289
    76  C   -0.000463
    77  C   -0.000631
    78  C   -0.000802
    79  C   -0.001318
    80  C   -0.001894
    81  C   -0.003332
    82  C   -0.006361
    83  C    0.009842
    84  C    0.019200
    85  C    0.018116
    86  C   -0.012469
    87  C   -0.001346
    88  C   -0.001134
    89  C   -0.001065
    90  C   -0.001025
    91  C   -0.000969
    92  C   -0.011560
    93  C   -0.001700
    94  C   -0.000830
    95  C   -0.000983
    96  C   -0.001163
    97  C   -0.000928
    98  C   -0.000356
    99  C   -0.000645
   100  C   -0.000539
   101  C   -0.001148
   102  C   -0.000618
   103  C   -0.000490
   104  C   -0.000655
 Sum of Mulliken charges =   0.00000
 Mulliken charges with hydrogens summed into heavy atoms:
               1
     1  C    0.016521
     2  C    0.015978
     3  C   -0.014120
     4  C    0.058048
     5  C   -0.014919
     6  C    0.053461
     7  C    0.416162
     8  N   -0.536141
    13  C    0.410485
    14  N   -0.494768
    15  C    0.016672
    16  C    0.015805
    17  C   -0.013906
    18  C    0.054721
    19  C   -0.014391
    20  C    0.054401
    21  C    0.412662
    22  N   -0.538272
    27  B    0.551608
    28  C    0.414704
    29  N   -0.496723
    30  C    0.014486
    31  C    0.015698
    32  C   -0.014628
    33  C    0.055868
    34  C   -0.015457
    35  C    0.053905
    36  C    0.413907
    37  N   -0.539180
    42  C    0.416547
    43  N   -0.494788
    44  Cl  -0.250325
    45  C   -0.000882
    46  C   -0.003786
    47  C   -0.002053
    48  C   -0.000653
    49  C   -0.000875
    50  C   -0.000644
    51  C   -0.000678
    52  C   -0.000564
    53  C   -0.000506
    54  C   -0.003619
    55  C   -0.002616
    56  C   -0.006872
    57  C    0.008580
    58  C    0.017469
    59  C    0.001026
    60  C   -0.004315
    61  C   -0.005111
    62  C    0.001696
    63  C   -0.001114
    64  C   -0.012589
    65  C   -0.015509
    66  C    0.013508
    67  C    0.014313
    68  C   -0.005965
    69  C   -0.001539
    70  C   -0.001082
    71  C   -0.000562
    72  C   -0.000688
    73  C   -0.000453
    74  C   -0.000383
    75  C   -0.000289
    76  C   -0.000463
    77  C   -0.000631
    78  C   -0.000802
    79  C   -0.001318
    80  C   -0.001894
    81  C   -0.003332
    82  C   -0.006361
    83  C    0.009842
    84  C    0.019200
    85  C    0.018116
    86  C   -0.012469
    87  C   -0.001346
    88  C   -0.001134
    89  C   -0.001065
    90  C   -0.001025
    91  C   -0.000969
    92  C   -0.011560
    93  C   -0.001700
    94  C   -0.000830
    95  C   -0.000983
    96  C   -0.001163
    97  C   -0.000928
    98  C   -0.000356
    99  C   -0.000645
   100  C   -0.000539
   101  C   -0.001148
   102  C   -0.000618
   103  C   -0.000490
   104  C   -0.000655
 Electronic spatial extent (au):  <R**2>=          46120.3459
 Charge=              0.0000 electrons
 Dipole moment (field-independent basis, Debye):
    X=              5.2554    Y=              0.0398    Z=             -0.0022  Tot=              5.2555
 Quadrupole moment (field-independent basis, Debye-Ang):
   XX=           -567.1955   YY=           -480.4976   ZZ=           -480.9136
   XY=             -0.6201   XZ=             -0.0872   YZ=              0.1190
 Traceless Quadrupole moment (field-independent basis, Debye-Ang):
   XX=            -57.6599   YY=             29.0379   ZZ=             28.6220
   XY=             -0.6201   XZ=             -0.0872   YZ=              0.1190
 Octapole moment (field-independent basis, Debye-Ang**2):
  XXX=            253.1817  YYY=             55.8742  ZZZ=              3.5763  XYY=            -87.8091
  XXY=              2.3297  XXZ=              1.2169  XZZ=            -83.6204  YZZ=            -53.1627
  YYZ=             -4.7489  XYZ=             -0.1996
 Hexadecapole moment (field-independent basis, Debye-Ang**3):
 XXXX=         -38283.4149 YYYY=         -14923.2331 ZZZZ=         -14913.6133 XXXY=            -10.8775
 XXXZ=             -4.9849 YYYX=            -52.2795 YYYZ=              1.6621 ZZZX=             -3.6423
 ZZZY=              1.3221 XXYY=          -8631.2264 XXZZ=          -8632.9017 YYZZ=          -4973.1893
 XXYZ=              0.9640 YYXZ=              2.1677 ZZXY=             30.5490
 N-N= 1.752060180882D+04 E-N=-4.438331864234D+04  KE= 3.987703217133D+03
 Leave Link  601 at Mon Aug  6 13:17:35 2018, MaxMem=   536870912 cpu:        20.0
 (Enter /local/isv/Gaussian/09_D01.PG/g09/l9999.exe)
 1\1\GINC-DMP7P-32\SP\RCAM-B3LYP-FC\6-31G(d)\C84H12B1Cl1N6\E1667\06-Aug
 -2018\0\\#p td CAM-B3LYP/6-31g* TD=(singlets,root=1,nstates=20) SCRF=(
 PCM,read) units=(ang,deg)\\SubPc-C60\\0,1\C,0,2.274508,3.377063,-4.125
 801\C,0,2.263053,2.176926,-4.857772\C,0,2.862802,1.0284,-4.364501\C,0,
 3.499115,1.10211,-3.126404\C,0,2.88296,3.455724,-2.882831\C,0,3.508892
 ,2.312701,-2.38637\C,0,4.084811,0.076619,-2.279894\N,0,4.526754,0.7274
 02,-1.16738\H,0,1.785971,4.253872,-4.539092\H,0,1.764636,2.148866,-5.8
 21605\H,0,2.832007,0.091627,-4.910642\H,0,2.867978,4.371314,-2.301162\
 C,0,4.094484,2.017803,-1.089182\N,0,3.961881,2.665579,0.070485\C,0,2.3
 7141,-5.28163,-0.85146\C,0,2.37928,-5.322023,0.553886\C,0,2.960177,-4.
 307426,1.298559\C,0,3.56129,-3.252658,0.613032\C,0,2.944894,-4.226267,
 -1.543315\C,0,3.553956,-3.212454,-0.805311\C,0,4.123471,-1.994237,1.07
 5231\N,0,4.543935,-1.346366,-0.047835\H,0,1.895073,-6.087256,-1.401311
 \H,0,1.909632,-6.158443,1.061923\H,0,2.941882,-4.318032,2.383175\H,0,2
 .914117,-4.173662,-2.626437\B,0,5.1408,0.017002,-0.012185\C,0,4.111764
 ,-1.929946,-1.201203\N,0,3.95847,-1.25098,-2.339371\C,0,2.310268,1.891
 396,4.977009\C,0,2.317412,3.133315,4.316477\C,0,2.919605,3.285852,3.07
 7934\C,0,3.541645,2.174173,2.510303\C,0,2.910472,0.775822,4.415263\C,0
 ,3.539829,0.923162,3.179374\C,0,4.107319,1.952956,1.189853\N,0,4.53802
 8,0.659633,1.187425\H,0,1.815817,1.80578,5.939523\H,0,1.828734,3.98326
 7,4.782403\H,0,2.898251,4.233292,2.550088\H,0,2.88364,-0.191304,4.9058
 81\C,0,4.113578,-0.052976,2.268586\N,0,3.985222,-1.381555,2.252456\Cl,
 0,6.997849,0.028252,-0.021038\C,0,-3.040435,2.414302,2.462691\C,0,-1.6
 02499,2.559042,2.348738\C,0,-1.317712,3.225126,1.092498\C,0,-2.579125,
 3.4916,0.430081\C,0,-3.643551,2.99073,1.277009\C,0,-4.759588,2.397094,
 0.7083\C,0,-4.861924,2.276173,-0.732561\C,0,-3.84388,2.754375,-1.54247
 9\C,0,-2.677201,3.376098,-0.948296\C,0,-1.518203,2.989521,-1.728605\C,
 0,-0.313102,2.731881,-1.094866\C,0,-0.21014,2.853292,0.346386\C,0,0.65
 7833,1.79623,0.82168\C,0,0.383438,1.159137,2.018985\C,0,-0.767874,1.55
 0192,2.803519\C,0,-1.330611,0.352511,3.395754\C,0,-0.519763,-0.775955,
 2.981629\C,0,0.540281,-0.275164,2.130591\C,0,0.958524,-1.012891,1.0361
 71\C,0,1.246951,-0.348285,-0.21861\C,0,1.093666,1.02452,-0.322668\C,0,
 0.492613,1.601471,-1.506735\C,0,0.06589,0.780129,-2.535968\C,0,-1.1938
 82,1.048251,-3.199179\C,0,-1.968797,2.128027,-2.804771\C,0,-3.406425,1
 .982747,-2.689277\C,0,-4.006731,0.766313,-2.975093\C,0,-5.071419,0.266
 035,-2.127753\C,0,-5.489384,1.004077,-1.03163\C,0,-5.77419,0.338419,0.
 223871\C,0,-5.628259,-1.035967,0.32864\C,0,-5.190843,-1.808081,-0.8175
 54\C,0,-4.918856,-1.171548,-2.018268\C,0,-3.759825,-1.559376,-2.7977\C
 ,0,-3.196179,-0.361836,-3.388879\C,0,-1.821102,-0.224008,-3.49785\C,0,
 -0.946342,-1.277726,-3.021547\C,0,0.220748,-0.656816,-2.427423\C,0,0.7
 94525,-1.208471,-1.294193\C,0,0.230997,-2.404597,-0.703153\C,0,0.33308
 2,-2.284172,0.736882\C,0,-0.681738,-2.764824,1.548305\C,0,-1.119309,-1
 .992349,2.694862\C,0,-2.557217,-2.136201,2.808958\C,0,-3.007702,-2.996
 679,1.732425\C,0,-1.848275,-3.385123,0.953525\C,0,-1.946512,-3.500722,
 -0.424856\C,0,-0.882607,-3.000787,-1.272359\C,0,-1.485845,-2.423243,-2
 .457141\C,0,-2.923809,-2.566667,-2.342148\C,0,-3.208288,-3.232523,-1.0
 8612\C,0,-4.316989,-2.862084,-0.341024\C,0,-4.214166,-2.741082,1.09986
 2\C,0,-5.024586,-1.61255,1.513507\C,0,-4.593829,-0.789569,2.542064\C,0
 ,-3.332409,-1.057029,3.204354\C,0,-2.70555,0.21494,3.504618\C,0,-3.579
 668,1.268809,3.027241\C,0,-4.746595,0.647874,2.432401\C,0,-5.323472,1.
 199572,1.299254\\Version=ES64L-G09RevD.01\State=1-A\HF=-4019.7856118\R
 MSD=7.781e-09\PG=C01 [X(C84H12B1Cl1N6)]\\@


 DEPRESSION IS WAITING FOR YOUR SHIP TO COME IN,
 AND FINDING OUT IT'S THE TITANIC.
 Job cpu time:       1 days 19 hours 53 minutes  2.1 seconds.
 File lengths (MBytes):  RWF=   8812 Int=      0 D2E=      0 Chk=   1379 Scr=      1
 Normal termination of Gaussian 09 at Mon Aug  6 13:17:41 2018.
