 Entering Gaussian System, Link 0=g09
 Input=SubPc-C60_opt.gjf
 Output=SubPc-C60_opt.log
 Initial command:
 /local/isv/Gaussian/09_D01.PG/g09/l1.exe "/tmp/e1667/191890.cae-pbs2-01/Gau-22346.inp" -scrdir="/tmp/e1667/191890.cae-pbs2-01/"
 Entering Link 1 = /local/isv/Gaussian/09_D01.PG/g09/l1.exe PID=     22347.
  
 Copyright (c) 1988,1990,1992,1993,1995,1998,2003,2009,2013,
            Gaussian, Inc.  All Rights Reserved.
  
 This is part of the Gaussian(R) 09 program.  It is based on
 the Gaussian(R) 03 system (copyright 2003, Gaussian, Inc.),
 the Gaussian(R) 98 system (copyright 1998, Gaussian, Inc.),
 the Gaussian(R) 94 system (copyright 1995, Gaussian, Inc.),
 the Gaussian 92(TM) system (copyright 1992, Gaussian, Inc.),
 the Gaussian 90(TM) system (copyright 1990, Gaussian, Inc.),
 the Gaussian 88(TM) system (copyright 1988, Gaussian, Inc.),
 the Gaussian 86(TM) system (copyright 1986, Carnegie Mellon
 University), and the Gaussian 82(TM) system (copyright 1983,
 Carnegie Mellon University). Gaussian is a federally registered
 trademark of Gaussian, Inc.
  
 This software contains proprietary and confidential information,
 including trade secrets, belonging to Gaussian, Inc.
  
 This software is provided under written license and may be
 used, copied, transmitted, or stored only in accord with that
 written license.
  
 The following legend is applicable only to US Government
 contracts under FAR:
  
                    RESTRICTED RIGHTS LEGEND
  
 Use, reproduction and disclosure by the US Government is
 subject to restrictions as set forth in subparagraphs (a)
 and (c) of the Commercial Computer Software - Restricted
 Rights clause in FAR 52.227-19.
  
 Gaussian, Inc.
 340 Quinnipiac St., Bldg. 40, Wallingford CT 06492
  
  
 ---------------------------------------------------------------
 Warning -- This program may not be used in any manner that
 competes with the business of Gaussian, Inc. or will provide
 assistance to any competitor of Gaussian, Inc.  The licensee
 of this program is prohibited from giving any competitor of
 Gaussian, Inc. access to this program.  By using this program,
 the user acknowledges that Gaussian, Inc. is engaged in the
 business of creating and licensing software in the field of
 computational chemistry and represents and warrants to the
 licensee that it is not a competitor of Gaussian, Inc. and that
 it will not use this program in any manner prohibited above.
 ---------------------------------------------------------------
  

 Cite this work as:
 Gaussian 09, Revision D.01,
 M. J. Frisch, G. W. Trucks, H. B. Schlegel, G. E. Scuseria, 
 M. A. Robb, J. R. Cheeseman, G. Scalmani, V. Barone, B. Mennucci, 
 G. A. Petersson, H. Nakatsuji, M. Caricato, X. Li, H. P. Hratchian, 
 A. F. Izmaylov, J. Bloino, G. Zheng, J. L. Sonnenberg, M. Hada, 
 M. Ehara, K. Toyota, R. Fukuda, J. Hasegawa, M. Ishida, T. Nakajima, 
 Y. Honda, O. Kitao, H. Nakai, T. Vreven, J. A. Montgomery, Jr., 
 J. E. Peralta, F. Ogliaro, M. Bearpark, J. J. Heyd, E. Brothers, 
 K. N. Kudin, V. N. Staroverov, T. Keith, R. Kobayashi, J. Normand, 
 K. Raghavachari, A. Rendell, J. C. Burant, S. S. Iyengar, J. Tomasi, 
 M. Cossi, N. Rega, J. M. Millam, M. Klene, J. E. Knox, J. B. Cross, 
 V. Bakken, C. Adamo, J. Jaramillo, R. Gomperts, R. E. Stratmann, 
 O. Yazyev, A. J. Austin, R. Cammi, C. Pomelli, J. W. Ochterski, 
 R. L. Martin, K. Morokuma, V. G. Zakrzewski, G. A. Voth, 
 P. Salvador, J. J. Dannenberg, S. Dapprich, A. D. Daniels, 
 O. Farkas, J. B. Foresman, J. V. Ortiz, J. Cioslowski, 
 and D. J. Fox, Gaussian, Inc., Wallingford CT, 2013.
 
 ******************************************
 Gaussian 09:  ES64L-G09RevD.01 24-Apr-2013
                 2-Aug-2018 
 ******************************************
 %nprocshared=16
 Will use up to   16 processors via shared memory.
 %mem=4096MB
 %chk=SubPc-C60_tddft_pcm.chk
 ----------------------------------------------------------------------
 #p wb97xd/6-31g* TD=(singlets,root=1,nstates=10) SCRF=(PCM,read)units=
 (ang,deg)
 ----------------------------------------------------------------------
 1/38=1,40=2/1;
 2/12=2,17=6,18=5,40=1/2;
 3/5=1,6=6,7=1,11=9,16=1,25=1,30=1,70=2203,72=1,74=-58/1,2,8,3;
 4//1;
 5/5=2,38=5/2;
 8/6=1,10=2,107=1,108=10/1;
 9/8=1,41=10,42=1,48=1,70=2/14;
 6/7=2,8=2,9=2,10=2/1;
 99/5=1,9=1/99;
 Leave Link    1 at Thu Aug  2 09:48:22 2018, MaxMem=   536870912 cpu:         0.6
 (Enter /local/isv/Gaussian/09_D01.PG/g09/l101.exe)
 ---------
 SubPc-C60
 ---------
 Symbolic Z-matrix:
 Charge =  0 Multiplicity = 1
 C                     2.27451   3.37706  -4.1258 
 C                     2.26305   2.17693  -4.85777 
 C                     2.8628    1.0284   -4.3645 
 C                     3.49912   1.10211  -3.1264 
 C                     2.88296   3.45572  -2.88283 
 C                     3.50889   2.3127   -2.38637 
 C                     4.08481   0.07662  -2.27989 
 N                     4.52675   0.7274   -1.16738 
 H                     1.78597   4.25387  -4.53909 
 H                     1.76464   2.14887  -5.82161 
 H                     2.83201   0.09163  -4.91064 
 H                     2.86798   4.37131  -2.30116 
 C                     4.09448   2.0178   -1.08918 
 N                     3.96188   2.66558   0.07049 
 C                     2.37141  -5.28163  -0.85146 
 C                     2.37928  -5.32202   0.55389 
 C                     2.96018  -4.30743   1.29856 
 C                     3.56129  -3.25266   0.61303 
 C                     2.94489  -4.22627  -1.54332 
 C                     3.55396  -3.21245  -0.80531 
 C                     4.12347  -1.99424   1.07523 
 N                     4.54394  -1.34637  -0.04784 
 H                     1.89507  -6.08726  -1.40131 
 H                     1.90963  -6.15844   1.06192 
 H                     2.94188  -4.31803   2.38318 
 H                     2.91412  -4.17366  -2.62644 
 B                     5.1408    0.017    -0.01219 
 C                     4.11176  -1.92995  -1.2012 
 N                     3.95847  -1.25098  -2.33937 
 C                     2.31027   1.8914    4.97701 
 C                     2.31741   3.13332   4.31648 
 C                     2.91961   3.28585   3.07793 
 C                     3.54165   2.17417   2.5103 
 C                     2.91047   0.77582   4.41526 
 C                     3.53983   0.92316   3.17937 
 C                     4.10732   1.95296   1.18985 
 N                     4.53803   0.65963   1.18743 
 H                     1.81582   1.80578   5.93952 
 H                     1.82873   3.98327   4.7824 
 H                     2.89825   4.23329   2.55009 
 H                     2.88364  -0.1913    4.90588 
 C                     4.11358  -0.05298   2.26859 
 N                     3.98522  -1.38156   2.25246 
 Cl                    6.99785   0.02825  -0.02104 
 C                    -3.04043   2.4143    2.46269 
 C                    -1.6025    2.55904   2.34874 
 C                    -1.31771   3.22513   1.0925 
 C                    -2.57913   3.4916    0.43008 
 C                    -3.64355   2.99073   1.27701 
 C                    -4.75959   2.39709   0.7083 
 C                    -4.86192   2.27617  -0.73256 
 C                    -3.84388   2.75438  -1.54248 
 C                    -2.6772    3.3761   -0.9483 
 C                    -1.5182    2.98952  -1.72861 
 C                    -0.3131    2.73188  -1.09487 
 C                    -0.21014   2.85329   0.34639 
 C                     0.65783   1.79623   0.82168 
 C                     0.38344   1.15914   2.01898 
 C                    -0.76787   1.55019   2.80352 
 C                    -1.33061   0.35251   3.39575 
 C                    -0.51976  -0.77596   2.98163 
 C                     0.54028  -0.27516   2.13059 
 C                     0.95852  -1.01289   1.03617 
 C                     1.24695  -0.34829  -0.21861 
 C                     1.09367   1.02452  -0.32267 
 C                     0.49261   1.60147  -1.50674 
 C                     0.06589   0.78013  -2.53597 
 C                    -1.19388   1.04825  -3.19918 
 C                    -1.9688    2.12803  -2.80477 
 C                    -3.40643   1.98275  -2.68928 
 C                    -4.00673   0.76631  -2.97509 
 C                    -5.07142   0.26604  -2.12775 
 C                    -5.48938   1.00408  -1.03163 
 C                    -5.77419   0.33842   0.22387 
 C                    -5.62826  -1.03597   0.32864 
 C                    -5.19084  -1.80808  -0.81755 
 C                    -4.91886  -1.17155  -2.01827 
 C                    -3.75983  -1.55938  -2.7977 
 C                    -3.19618  -0.36184  -3.38888 
 C                    -1.8211   -0.22401  -3.49785 
 C                    -0.94634  -1.27773  -3.02155 
 C                     0.22075  -0.65682  -2.42742 
 C                     0.79453  -1.20847  -1.29419 
 C                     0.231    -2.4046   -0.70315 
 C                     0.33308  -2.28417   0.73688 
 C                    -0.68174  -2.76482   1.54831 
 C                    -1.11931  -1.99235   2.69486 
 C                    -2.55722  -2.1362    2.80896 
 C                    -3.0077   -2.99668   1.73243 
 C                    -1.84828  -3.38512   0.95353 
 C                    -1.94651  -3.50072  -0.42486 
 C                    -0.88261  -3.00079  -1.27236 
 C                    -1.48585  -2.42324  -2.45714 
 C                    -2.92381  -2.56667  -2.34215 
 C                    -3.20829  -3.23252  -1.08612 
 C                    -4.31699  -2.86208  -0.34102 
 C                    -4.21417  -2.74108   1.09986 
 C                    -5.02459  -1.61255   1.51351 
 C                    -4.59383  -0.78957   2.54206 
 C                    -3.33241  -1.05703   3.20435 
 C                    -2.70555   0.21494   3.50462 
 C                    -3.57967   1.26881   3.02724 
 C                    -4.7466    0.64787   2.4324 
 C                    -5.32347   1.19957   1.29925 
 
 NAtoms=    104 NQM=      104 NQMF=       0 NMMI=      0 NMMIF=      0
                NMic=       0 NMicF=      0.
                    Isotopes and Nuclear Properties:
 (Nuclear quadrupole moments (NQMom) in fm**2, nuclear magnetic moments (NMagM)
  in nuclear magnetons)

  Atom         1           2           3           4           5           6           7           8           9          10
 IAtWgt=          12          12          12          12          12          12          12          14           1           1
 AtmWgt=  12.0000000  12.0000000  12.0000000  12.0000000  12.0000000  12.0000000  12.0000000  14.0030740   1.0078250   1.0078250
 NucSpn=           0           0           0           0           0           0           0           2           1           1
 AtZEff=   0.0000000   0.0000000   0.0000000   0.0000000   0.0000000   0.0000000   0.0000000   0.0000000   0.0000000   0.0000000
 NQMom=    0.0000000   0.0000000   0.0000000   0.0000000   0.0000000   0.0000000   0.0000000   2.0440000   0.0000000   0.0000000
 NMagM=    0.0000000   0.0000000   0.0000000   0.0000000   0.0000000   0.0000000   0.0000000   0.4037610   2.7928460   2.7928460
 AtZNuc=   6.0000000   6.0000000   6.0000000   6.0000000   6.0000000   6.0000000   6.0000000   7.0000000   1.0000000   1.0000000

  Atom        11          12          13          14          15          16          17          18          19          20
 IAtWgt=           1           1          12          14          12          12          12          12          12          12
 AtmWgt=   1.0078250   1.0078250  12.0000000  14.0030740  12.0000000  12.0000000  12.0000000  12.0000000  12.0000000  12.0000000
 NucSpn=           1           1           0           2           0           0           0           0           0           0
 AtZEff=   0.0000000   0.0000000   0.0000000   0.0000000   0.0000000   0.0000000   0.0000000   0.0000000   0.0000000   0.0000000
 NQMom=    0.0000000   0.0000000   0.0000000   2.0440000   0.0000000   0.0000000   0.0000000   0.0000000   0.0000000   0.0000000
 NMagM=    2.7928460   2.7928460   0.0000000   0.4037610   0.0000000   0.0000000   0.0000000   0.0000000   0.0000000   0.0000000
 AtZNuc=   1.0000000   1.0000000   6.0000000   7.0000000   6.0000000   6.0000000   6.0000000   6.0000000   6.0000000   6.0000000

  Atom        21          22          23          24          25          26          27          28          29          30
 IAtWgt=          12          14           1           1           1           1          11          12          14          12
 AtmWgt=  12.0000000  14.0030740   1.0078250   1.0078250   1.0078250   1.0078250  11.0093053  12.0000000  14.0030740  12.0000000
 NucSpn=           0           2           1           1           1           1           3           0           2           0
 AtZEff=   0.0000000   0.0000000   0.0000000   0.0000000   0.0000000   0.0000000   0.0000000   0.0000000   0.0000000   0.0000000
 NQMom=    0.0000000   2.0440000   0.0000000   0.0000000   0.0000000   0.0000000   4.0590000   0.0000000   2.0440000   0.0000000
 NMagM=    0.0000000   0.4037610   2.7928460   2.7928460   2.7928460   2.7928460   2.6886370   0.0000000   0.4037610   0.0000000
 AtZNuc=   6.0000000   7.0000000   1.0000000   1.0000000   1.0000000   1.0000000   5.0000000   6.0000000   7.0000000   6.0000000

  Atom        31          32          33          34          35          36          37          38          39          40
 IAtWgt=          12          12          12          12          12          12          14           1           1           1
 AtmWgt=  12.0000000  12.0000000  12.0000000  12.0000000  12.0000000  12.0000000  14.0030740   1.0078250   1.0078250   1.0078250
 NucSpn=           0           0           0           0           0           0           2           1           1           1
 AtZEff=   0.0000000   0.0000000   0.0000000   0.0000000   0.0000000   0.0000000   0.0000000   0.0000000   0.0000000   0.0000000
 NQMom=    0.0000000   0.0000000   0.0000000   0.0000000   0.0000000   0.0000000   2.0440000   0.0000000   0.0000000   0.0000000
 NMagM=    0.0000000   0.0000000   0.0000000   0.0000000   0.0000000   0.0000000   0.4037610   2.7928460   2.7928460   2.7928460
 AtZNuc=   6.0000000   6.0000000   6.0000000   6.0000000   6.0000000   6.0000000   7.0000000   1.0000000   1.0000000   1.0000000

  Atom        41          42          43          44          45          46          47          48          49          50
 IAtWgt=           1          12          14          35          12          12          12          12          12          12
 AtmWgt=   1.0078250  12.0000000  14.0030740  34.9688527  12.0000000  12.0000000  12.0000000  12.0000000  12.0000000  12.0000000
 NucSpn=           1           0           2           3           0           0           0           0           0           0
 AtZEff=   0.0000000   0.0000000   0.0000000   0.0000000   0.0000000   0.0000000   0.0000000   0.0000000   0.0000000   0.0000000
 NQMom=    0.0000000   0.0000000   2.0440000  -8.1650000   0.0000000   0.0000000   0.0000000   0.0000000   0.0000000   0.0000000
 NMagM=    2.7928460   0.0000000   0.4037610   0.8218740   0.0000000   0.0000000   0.0000000   0.0000000   0.0000000   0.0000000
 AtZNuc=   1.0000000   6.0000000   7.0000000  17.0000000   6.0000000   6.0000000   6.0000000   6.0000000   6.0000000   6.0000000

  Atom        51          52          53          54          55          56          57          58          59          60
 IAtWgt=          12          12          12          12          12          12          12          12          12          12
 AtmWgt=  12.0000000  12.0000000  12.0000000  12.0000000  12.0000000  12.0000000  12.0000000  12.0000000  12.0000000  12.0000000
 NucSpn=           0           0           0           0           0           0           0           0           0           0
 AtZEff=   0.0000000   0.0000000   0.0000000   0.0000000   0.0000000   0.0000000   0.0000000   0.0000000   0.0000000   0.0000000
 NQMom=    0.0000000   0.0000000   0.0000000   0.0000000   0.0000000   0.0000000   0.0000000   0.0000000   0.0000000   0.0000000
 NMagM=    0.0000000   0.0000000   0.0000000   0.0000000   0.0000000   0.0000000   0.0000000   0.0000000   0.0000000   0.0000000
 AtZNuc=   6.0000000   6.0000000   6.0000000   6.0000000   6.0000000   6.0000000   6.0000000   6.0000000   6.0000000   6.0000000

  Atom        61          62          63          64          65          66          67          68          69          70
 IAtWgt=          12          12          12          12          12          12          12          12          12          12
 AtmWgt=  12.0000000  12.0000000  12.0000000  12.0000000  12.0000000  12.0000000  12.0000000  12.0000000  12.0000000  12.0000000
 NucSpn=           0           0           0           0           0           0           0           0           0           0
 AtZEff=   0.0000000   0.0000000   0.0000000   0.0000000   0.0000000   0.0000000   0.0000000   0.0000000   0.0000000   0.0000000
 NQMom=    0.0000000   0.0000000   0.0000000   0.0000000   0.0000000   0.0000000   0.0000000   0.0000000   0.0000000   0.0000000
 NMagM=    0.0000000   0.0000000   0.0000000   0.0000000   0.0000000   0.0000000   0.0000000   0.0000000   0.0000000   0.0000000
 AtZNuc=   6.0000000   6.0000000   6.0000000   6.0000000   6.0000000   6.0000000   6.0000000   6.0000000   6.0000000   6.0000000

  Atom        71          72          73          74          75          76          77          78          79          80
 IAtWgt=          12          12          12          12          12          12          12          12          12          12
 AtmWgt=  12.0000000  12.0000000  12.0000000  12.0000000  12.0000000  12.0000000  12.0000000  12.0000000  12.0000000  12.0000000
 NucSpn=           0           0           0           0           0           0           0           0           0           0
 AtZEff=   0.0000000   0.0000000   0.0000000   0.0000000   0.0000000   0.0000000   0.0000000   0.0000000   0.0000000   0.0000000
 NQMom=    0.0000000   0.0000000   0.0000000   0.0000000   0.0000000   0.0000000   0.0000000   0.0000000   0.0000000   0.0000000
 NMagM=    0.0000000   0.0000000   0.0000000   0.0000000   0.0000000   0.0000000   0.0000000   0.0000000   0.0000000   0.0000000
 AtZNuc=   6.0000000   6.0000000   6.0000000   6.0000000   6.0000000   6.0000000   6.0000000   6.0000000   6.0000000   6.0000000

  Atom        81          82          83          84          85          86          87          88          89          90
 IAtWgt=          12          12          12          12          12          12          12          12          12          12
 AtmWgt=  12.0000000  12.0000000  12.0000000  12.0000000  12.0000000  12.0000000  12.0000000  12.0000000  12.0000000  12.0000000
 NucSpn=           0           0           0           0           0           0           0           0           0           0
 AtZEff=   0.0000000   0.0000000   0.0000000   0.0000000   0.0000000   0.0000000   0.0000000   0.0000000   0.0000000   0.0000000
 NQMom=    0.0000000   0.0000000   0.0000000   0.0000000   0.0000000   0.0000000   0.0000000   0.0000000   0.0000000   0.0000000
 NMagM=    0.0000000   0.0000000   0.0000000   0.0000000   0.0000000   0.0000000   0.0000000   0.0000000   0.0000000   0.0000000
 AtZNuc=   6.0000000   6.0000000   6.0000000   6.0000000   6.0000000   6.0000000   6.0000000   6.0000000   6.0000000   6.0000000

  Atom        91          92          93          94          95          96          97          98          99         100
 IAtWgt=          12          12          12          12          12          12          12          12          12          12
 AtmWgt=  12.0000000  12.0000000  12.0000000  12.0000000  12.0000000  12.0000000  12.0000000  12.0000000  12.0000000  12.0000000
 NucSpn=           0           0           0           0           0           0           0           0           0           0
 AtZEff=   0.0000000   0.0000000   0.0000000   0.0000000   0.0000000   0.0000000   0.0000000   0.0000000   0.0000000   0.0000000
 NQMom=    0.0000000   0.0000000   0.0000000   0.0000000   0.0000000   0.0000000   0.0000000   0.0000000   0.0000000   0.0000000
 NMagM=    0.0000000   0.0000000   0.0000000   0.0000000   0.0000000   0.0000000   0.0000000   0.0000000   0.0000000   0.0000000
 AtZNuc=   6.0000000   6.0000000   6.0000000   6.0000000   6.0000000   6.0000000   6.0000000   6.0000000   6.0000000   6.0000000

  Atom       101         102         103         104
 IAtWgt=          12          12          12          12
 AtmWgt=  12.0000000  12.0000000  12.0000000  12.0000000
 NucSpn=           0           0           0           0
 AtZEff=   0.0000000   0.0000000   0.0000000   0.0000000
 NQMom=    0.0000000   0.0000000   0.0000000   0.0000000
 NMagM=    0.0000000   0.0000000   0.0000000   0.0000000
 AtZNuc=   6.0000000   6.0000000   6.0000000   6.0000000
 Leave Link  101 at Thu Aug  2 09:48:22 2018, MaxMem=   536870912 cpu:         1.6
 (Enter /local/isv/Gaussian/09_D01.PG/g09/l202.exe)
 Stoichiometry    C84H12BClN6
 Framework group  C1[X(C84H12BClN6)]
 Deg. of freedom   306
 Full point group                 C1      NOp   1
 Largest Abelian subgroup         C1      NOp   1
 Largest concise Abelian subgroup C1      NOp   1
                         Standard orientation:                         
 ---------------------------------------------------------------------
 Center     Atomic      Atomic             Coordinates (Angstroms)
 Number     Number       Type             X           Y           Z
 ---------------------------------------------------------------------
      1          6           0       -2.274508   -3.377063   -4.125801
      2          6           0       -2.263053   -2.176926   -4.857772
      3          6           0       -2.862802   -1.028400   -4.364501
      4          6           0       -3.499115   -1.102110   -3.126404
      5          6           0       -2.882960   -3.455724   -2.882831
      6          6           0       -3.508892   -2.312701   -2.386370
      7          6           0       -4.084811   -0.076619   -2.279894
      8          7           0       -4.526754   -0.727402   -1.167380
      9          1           0       -1.785971   -4.253872   -4.539092
     10          1           0       -1.764636   -2.148866   -5.821605
     11          1           0       -2.832007   -0.091627   -4.910642
     12          1           0       -2.867978   -4.371314   -2.301162
     13          6           0       -4.094484   -2.017803   -1.089182
     14          7           0       -3.961881   -2.665579    0.070485
     15          6           0       -2.371410    5.281630   -0.851460
     16          6           0       -2.379280    5.322023    0.553886
     17          6           0       -2.960177    4.307426    1.298559
     18          6           0       -3.561290    3.252658    0.613032
     19          6           0       -2.944894    4.226267   -1.543315
     20          6           0       -3.553956    3.212454   -0.805311
     21          6           0       -4.123471    1.994237    1.075231
     22          7           0       -4.543935    1.346366   -0.047835
     23          1           0       -1.895073    6.087256   -1.401311
     24          1           0       -1.909632    6.158443    1.061923
     25          1           0       -2.941882    4.318032    2.383175
     26          1           0       -2.914117    4.173662   -2.626437
     27          5           0       -5.140800   -0.017002   -0.012185
     28          6           0       -4.111764    1.929946   -1.201203
     29          7           0       -3.958470    1.250980   -2.339371
     30          6           0       -2.310268   -1.891396    4.977009
     31          6           0       -2.317412   -3.133315    4.316477
     32          6           0       -2.919605   -3.285852    3.077934
     33          6           0       -3.541645   -2.174173    2.510303
     34          6           0       -2.910472   -0.775822    4.415263
     35          6           0       -3.539829   -0.923162    3.179374
     36          6           0       -4.107319   -1.952956    1.189853
     37          7           0       -4.538028   -0.659633    1.187425
     38          1           0       -1.815817   -1.805780    5.939523
     39          1           0       -1.828734   -3.983267    4.782403
     40          1           0       -2.898251   -4.233292    2.550088
     41          1           0       -2.883640    0.191304    4.905881
     42          6           0       -4.113578    0.052976    2.268586
     43          7           0       -3.985222    1.381555    2.252456
     44         17           0       -6.997849   -0.028252   -0.021038
     45          6           0        3.040435   -2.414302    2.462691
     46          6           0        1.602499   -2.559042    2.348738
     47          6           0        1.317712   -3.225126    1.092498
     48          6           0        2.579125   -3.491600    0.430081
     49          6           0        3.643551   -2.990730    1.277009
     50          6           0        4.759588   -2.397094    0.708300
     51          6           0        4.861924   -2.276173   -0.732561
     52          6           0        3.843880   -2.754375   -1.542479
     53          6           0        2.677201   -3.376098   -0.948296
     54          6           0        1.518203   -2.989521   -1.728605
     55          6           0        0.313102   -2.731881   -1.094866
     56          6           0        0.210140   -2.853292    0.346386
     57          6           0       -0.657833   -1.796230    0.821680
     58          6           0       -0.383438   -1.159137    2.018985
     59          6           0        0.767874   -1.550192    2.803519
     60          6           0        1.330611   -0.352511    3.395754
     61          6           0        0.519763    0.775955    2.981629
     62          6           0       -0.540281    0.275164    2.130591
     63          6           0       -0.958524    1.012891    1.036171
     64          6           0       -1.246951    0.348285   -0.218610
     65          6           0       -1.093666   -1.024520   -0.322668
     66          6           0       -0.492613   -1.601471   -1.506735
     67          6           0       -0.065890   -0.780129   -2.535968
     68          6           0        1.193882   -1.048251   -3.199179
     69          6           0        1.968797   -2.128027   -2.804771
     70          6           0        3.406425   -1.982747   -2.689277
     71          6           0        4.006731   -0.766313   -2.975093
     72          6           0        5.071419   -0.266035   -2.127753
     73          6           0        5.489384   -1.004077   -1.031630
     74          6           0        5.774190   -0.338419    0.223871
     75          6           0        5.628259    1.035967    0.328640
     76          6           0        5.190843    1.808081   -0.817554
     77          6           0        4.918856    1.171548   -2.018268
     78          6           0        3.759825    1.559376   -2.797700
     79          6           0        3.196179    0.361836   -3.388879
     80          6           0        1.821102    0.224008   -3.497850
     81          6           0        0.946342    1.277726   -3.021547
     82          6           0       -0.220748    0.656816   -2.427423
     83          6           0       -0.794525    1.208471   -1.294193
     84          6           0       -0.230997    2.404597   -0.703153
     85          6           0       -0.333082    2.284172    0.736882
     86          6           0        0.681738    2.764824    1.548305
     87          6           0        1.119309    1.992349    2.694862
     88          6           0        2.557217    2.136201    2.808958
     89          6           0        3.007702    2.996679    1.732425
     90          6           0        1.848275    3.385123    0.953525
     91          6           0        1.946512    3.500722   -0.424856
     92          6           0        0.882607    3.000787   -1.272359
     93          6           0        1.485845    2.423243   -2.457141
     94          6           0        2.923809    2.566667   -2.342148
     95          6           0        3.208288    3.232523   -1.086120
     96          6           0        4.316989    2.862084   -0.341024
     97          6           0        4.214166    2.741082    1.099862
     98          6           0        5.024586    1.612550    1.513507
     99          6           0        4.593829    0.789569    2.542064
    100          6           0        3.332409    1.057029    3.204354
    101          6           0        2.705550   -0.214940    3.504618
    102          6           0        3.579668   -1.268809    3.027241
    103          6           0        4.746595   -0.647874    2.432401
    104          6           0        5.323472   -1.199572    1.299254
 ---------------------------------------------------------------------
 Rotational constants (GHZ):      0.0442338      0.0264580      0.0264330
 Leave Link  202 at Thu Aug  2 09:48:22 2018, MaxMem=   536870912 cpu:         0.3
 (Enter /local/isv/Gaussian/09_D01.PG/g09/l301.exe)
 Standard basis: 6-31G(d) (6D, 7F)
 Ernie: Thresh=  0.10000D-02 Tol=  0.10000D-05 Strict=F.
 There are  1408 symmetry adapted cartesian basis functions of A   symmetry.
 There are  1408 symmetry adapted basis functions of A   symmetry.
  1408 basis functions,  2648 primitive gaussians,  1408 cartesian basis functions
   290 alpha electrons      290 beta electrons
       nuclear repulsion energy     17520.6018088205 Hartrees.
 IExCor= 4639 DFT=T Ex+Corr=wB97XD ExCW=0 ScaHFX=  1.000000
 ScaDFX=  1.000000  1.000000  1.000000  1.000000 ScalE2=  1.000000  1.000000
 IRadAn=      0 IRanWt=     -1 IRanGd=            0 ICorTp=0 IEmpDi=121
  HFx wShort=  0.000000 wLong=  0.200000 cFull=  0.222036 cShort=  0.000000 cLong=  0.777964
  DFx wShort=  0.000000 wLong=  0.200000 cFull=  0.000000 cShort=  0.000000 cLong=  1.000000
 NAtoms=  104 NActive=  104 NUniq=  104 SFac= 1.00D+00 NAtFMM=   60 NAOKFM=T Big=T
 Integral buffers will be    131072 words long.
 Raffenetti 1 integral format.
 Two-electron integral symmetry is turned on.
 R6Disp:  Grimme-D2 Dispersion energy=       -0.1868016359 Hartrees.
 Nuclear repulsion after empirical dispersion term =    17520.4150071847 Hartrees.
 Using the following non-standard input for PCM:
 EPS=4.2
 --- end of non-standard input.
 ------------------------------------------------------------------------------
 Polarizable Continuum Model (PCM)
 =================================
 Model                : PCM (using non-symmetric T matrix).
 Atomic radii         : UFF (Universal Force Field).
 Polarization charges : Total charges.
 Charge compensation  : None.
 Solution method      : On-the-fly selection.
 Cavity type          : Scaled VdW (van der Waals Surface) (Alpha=1.100).
 Cavity algorithm     : GePol (No added spheres)
                        Default sphere list used, NSphG=  104.
                        Lebedev-Laikov grids with approx.  5.0 points / Ang**2.
                        Smoothing algorithm: Karplus/York (Gamma=1.0000).
                        Polarization charges: spherical gaussians, with
                                              point-specific exponents (IZeta= 3).
                        Self-potential: point-specific (ISelfS= 7).
                        Self-field    : sphere-specific E.n sum rule (ISelfD= 2).
 Solvent              : Water, Eps=   4.200000 Eps(inf)=   1.777849
 ------------------------------------------------------------------------------
 GePol: Number of generator spheres                  =     104
 GePol: Total number of spheres                      =     104
 GePol: Number of exposed spheres                    =     104 (100.00%)
 GePol: Number of points                             =    5793
 GePol: Average weight of points                     =       0.13
 GePol: Minimum weight of points                     =   0.22D-11
 GePol: Maximum weight of points                     =    0.21616
 GePol: Number of points with low weight             =     467
 GePol: Fraction of low-weight points (<1% of avg)   =       8.06%
 GePol: Cavity surface area                          =    737.686 Ang**2
 GePol: Cavity volume                                =   1149.745 Ang**3
 Leave Link  301 at Thu Aug  2 09:48:22 2018, MaxMem=   536870912 cpu:         2.1
 (Enter /local/isv/Gaussian/09_D01.PG/g09/l302.exe)
 NPDir=0 NMtPBC=     1 NCelOv=     1 NCel=       1 NClECP=     1 NCelD=      1
         NCelK=      1 NCelE2=     1 NClLst=     1 CellRange=     0.0.
 One-electron integrals computed using PRISM.
 NBasis=  1408 RedAO= T EigKep=  3.01D-04  NBF=  1408
 NBsUse=  1408 1.00D-06 EigRej= -1.00D+00 NBFU=  1408
 Precomputing XC quadrature grid using
 IXCGrd= 4 IRadAn=           0 IRanWt=          -1 IRanGd=           0 AccXCQ= 0.00D+00.
 Generated NRdTot=       0 NPtTot=           0 NUsed=           0 NTot=          32
 NSgBfM=  1234  1270  1270  1288  1298 MxSgAt=   104 MxSgA2=   104.
 Leave Link  302 at Thu Aug  2 09:48:27 2018, MaxMem=   536870912 cpu:        76.3
 (Enter /local/isv/Gaussian/09_D01.PG/g09/l308.exe)
 Leave Link  308 at Thu Aug  2 09:48:28 2018, MaxMem=   536870912 cpu:         5.5
 (Enter /local/isv/Gaussian/09_D01.PG/g09/l303.exe)
 DipDrv:  MaxL=1.
 Leave Link  303 at Thu Aug  2 09:48:28 2018, MaxMem=   536870912 cpu:         3.8
 (Enter /local/isv/Gaussian/09_D01.PG/g09/l401.exe)
 ExpMin= 1.27D-01 ExpMax= 2.52D+04 ExpMxC= 3.78D+03 IAcc=1 IRadAn=         1 AccDes= 0.00D+00
 Harris functional with IExCor= 4639 and IRadAn=       1 diagonalized for initial guess.
 HarFok:  IExCor= 4639 AccDes= 0.00D+00 IRadAn=         1 IDoV= 1 UseB2=F ITyADJ=14
 ICtDFT=  3500011 ScaDFX=  1.000000  1.000000  1.000000  1.000000
 FoFCou: FMM=F IPFlag=           0 FMFlag=      100000 FMFlg1=        2001
         NFxFlg=           0 DoJE=T BraDBF=F KetDBF=T FulRan=T
         wScrn=  0.000000 ICntrl=     500 IOpCl=  0 I1Cent=   200000004 NGrid=           0
         NMat0=    1 NMatS0=      1 NMatT0=    0 NMatD0=    1 NMtDS0=    0 NMtDT0=    0
 Petite list used in FoFCou.
 Harris En= -3858.91994054920    
 JPrj=0 DoOrth=F DoCkMO=F.
 Leave Link  401 at Thu Aug  2 09:48:34 2018, MaxMem=   536870912 cpu:        93.8
 (Enter /local/isv/Gaussian/09_D01.PG/g09/l502.exe)
 Closed shell SCF:
 Using DIIS extrapolation, IDIIS=  1040.
 Integral symmetry usage will be decided dynamically.
 IVT=     5998927 IEndB=     5998927 NGot=   536870912 MDV=   532872498
 LenX=   532872498 LenY=   530888626
 Requested convergence on RMS density matrix=1.00D-08 within 128 cycles.
 Requested convergence on MAX density matrix=1.00D-06.
 Requested convergence on             energy=1.00D-06.
 No special actions if energy rises.
 Fock matrices will be formed incrementally for  20 cycles.

 Cycle   1  Pass 1  IDiag  1:
 FoFJK:  IHMeth= 1 ICntrl=       0 DoSepK=T KAlg= 0 I1Cent=   0 FoldK=F
 IRaf=         1 NMat=   1 IRICut=       1 DoRegI=T DoRafI=F ISym2E= 0.
 FoFCou: FMM=T IPFlag=           0 FMFlag=      100000 FMFlg1=        2001
         NFxFlg=           0 DoJE=T BraDBF=F KetDBF=F FulRan=T
         wScrn=  0.000000 ICntrl=     500 IOpCl=  0 I1Cent=           0 NGrid=           0
         NMat0=    1 NMatS0=      1 NMatT0=    0 NMatD0=    1 NMtDS0=    0 NMtDT0=    0
 Symmetry not used in FoFCou.
 FMM levels:  10  Number of levels for PrismC:   9
 Inv3:  Mode=1 IEnd=   100676547.
 Iteration    1 A*A^-1 deviation from unit magnitude is 1.09D-14 for   5785.
 Iteration    1 A*A^-1 deviation from orthogonality  is 6.45D-15 for   5776   5736.
 Iteration    1 A^-1*A deviation from unit magnitude is 1.07D-14 for   5785.
 Iteration    1 A^-1*A deviation from orthogonality  is 2.37D-11 for   2833   2814.
 E= -4019.74053417126    
 DIIS: error= 1.37D-01 at cycle   1 NSaved=   1.
 NSaved= 1 IEnMin= 1 EnMin= -4019.74053417126     IErMin= 1 ErrMin= 1.37D-01
 ErrMax= 1.37D-01  0.00D+00 EMaxC= 1.00D-01 BMatC= 3.65D+00 BMatP= 3.65D+00
 IDIUse=3 WtCom= 0.00D+00 WtEn= 1.00D+00
 Coeff-Com:  0.100D+01
 Coeff-En:   0.100D+01
 Coeff:      0.100D+01
 Gap=     0.247 Goal=   None    Shift=    0.000
 GapD=    0.247 DampG=1.000 DampE=0.250 DampFc=0.2500 IDamp=-1.
 Damping current iteration by 2.50D-01
 RMSDP=1.52D-03 MaxDP=2.64D-01              OVMax= 1.71D-01

 Cycle   2  Pass 1  IDiag  1:
 RMSU=  3.80D-04    CP:  1.00D+00
 E= -4019.98016867878     Delta-E=       -0.239634507514 Rises=F Damp=T
 DIIS: error= 9.64D-02 at cycle   2 NSaved=   2.
 NSaved= 2 IEnMin= 2 EnMin= -4019.98016867878     IErMin= 2 ErrMin= 9.64D-02
 ErrMax= 9.64D-02  0.00D+00 EMaxC= 1.00D-01 BMatC= 1.94D+00 BMatP= 3.65D+00
 IDIUse=3 WtCom= 3.61D-02 WtEn= 9.64D-01
 Coeff-Com: -0.244D+01 0.344D+01
 Coeff-En:   0.000D+00 0.100D+01
 Coeff:     -0.880D-01 0.109D+01
 Gap=     0.196 Goal=   None    Shift=    0.000
 RMSDP=9.97D-04 MaxDP=1.46D-01 DE=-2.40D-01 OVMax= 6.10D-02

 Cycle   3  Pass 1  IDiag  1:
 RMSU=  3.43D-04    CP:  9.99D-01  3.00D+00
 E= -4020.52883107702     Delta-E=       -0.548662398247 Rises=F Damp=F
 DIIS: error= 1.49D-02 at cycle   3 NSaved=   3.
 NSaved= 3 IEnMin= 3 EnMin= -4020.52883107702     IErMin= 3 ErrMin= 1.49D-02
 ErrMax= 1.49D-02  0.00D+00 EMaxC= 1.00D-01 BMatC= 5.25D-02 BMatP= 1.94D+00
 IDIUse=3 WtCom= 8.51D-01 WtEn= 1.49D-01
 Coeff-Com:  0.170D+01-0.224D+01 0.154D+01
 Coeff-En:   0.000D+00 0.000D+00 0.100D+01
 Coeff:      0.145D+01-0.191D+01 0.146D+01
 Gap=     0.219 Goal=   None    Shift=    0.000
 RMSDP=3.15D-04 MaxDP=9.66D-02 DE=-5.49D-01 OVMax= 3.79D-02

 Cycle   4  Pass 1  IDiag  1:
 RMSU=  3.02D-04    CP:  9.99D-01  3.00D+00  1.26D+00
 E= -4020.57402136856     Delta-E=       -0.045190291537 Rises=F Damp=F
 DIIS: error= 4.83D-03 at cycle   4 NSaved=   4.
 NSaved= 4 IEnMin= 4 EnMin= -4020.57402136856     IErMin= 4 ErrMin= 4.83D-03
 ErrMax= 4.83D-03  0.00D+00 EMaxC= 1.00D-01 BMatC= 6.01D-03 BMatP= 5.25D-02
 IDIUse=3 WtCom= 9.52D-01 WtEn= 4.83D-02
 Coeff-Com:  0.673D+00-0.892D+00 0.644D+00 0.575D+00
 Coeff-En:   0.000D+00 0.000D+00 0.000D+00 0.100D+01
 Coeff:      0.641D+00-0.849D+00 0.613D+00 0.595D+00
 Gap=     0.188 Goal=   None    Shift=    0.000
 RMSDP=9.40D-05 MaxDP=2.15D-02 DE=-4.52D-02 OVMax= 1.16D-02

 Cycle   5  Pass 1  IDiag  1:
 RMSU=  7.01D-05    CP:  9.98D-01  3.00D+00  1.28D+00  7.96D-01
 E= -4020.57911472407     Delta-E=       -0.005093355510 Rises=F Damp=F
 DIIS: error= 4.71D-04 at cycle   5 NSaved=   5.
 NSaved= 5 IEnMin= 5 EnMin= -4020.57911472407     IErMin= 5 ErrMin= 4.71D-04
 ErrMax= 4.71D-04  0.00D+00 EMaxC= 1.00D-01 BMatC= 5.99D-04 BMatP= 6.01D-03
 IDIUse=3 WtCom= 9.95D-01 WtEn= 4.71D-03
 Coeff-Com:  0.785D-01-0.105D+00 0.976D-01 0.263D+00 0.666D+00
 Coeff-En:   0.000D+00 0.000D+00 0.000D+00 0.000D+00 0.100D+01
 Coeff:      0.781D-01-0.104D+00 0.972D-01 0.261D+00 0.668D+00
 Gap=     0.188 Goal=   None    Shift=    0.000
 RMSDP=2.76D-05 MaxDP=2.79D-03 DE=-5.09D-03 OVMax= 4.80D-03

 Cycle   6  Pass 1  IDiag  1:
 RMSU=  1.98D-05    CP:  9.98D-01  3.00D+00  1.29D+00  8.28D-01  7.71D-01
 E= -4020.57968366189     Delta-E=       -0.000568937823 Rises=F Damp=F
 DIIS: error= 3.57D-04 at cycle   6 NSaved=   6.
 NSaved= 6 IEnMin= 6 EnMin= -4020.57968366189     IErMin= 6 ErrMin= 3.57D-04
 ErrMax= 3.57D-04  0.00D+00 EMaxC= 1.00D-01 BMatC= 6.61D-05 BMatP= 5.99D-04
 IDIUse=3 WtCom= 9.96D-01 WtEn= 3.57D-03
 Coeff-Com: -0.488D-01 0.644D-01-0.352D-01 0.543D-01 0.314D+00 0.651D+00
 Coeff-En:   0.000D+00 0.000D+00 0.000D+00 0.000D+00 0.000D+00 0.100D+01
 Coeff:     -0.486D-01 0.642D-01-0.351D-01 0.541D-01 0.313D+00 0.652D+00
 Gap=     0.188 Goal=   None    Shift=    0.000
 RMSDP=9.54D-06 MaxDP=1.55D-03 DE=-5.69D-04 OVMax= 1.89D-03

 Cycle   7  Pass 1  IDiag  1:
 RMSU=  8.03D-06    CP:  9.98D-01  3.00D+00  1.29D+00  8.33D-01  8.17D-01
                    CP:  8.21D-01
 E= -4020.57976246868     Delta-E=       -0.000078806785 Rises=F Damp=F
 DIIS: error= 7.91D-05 at cycle   7 NSaved=   7.
 NSaved= 7 IEnMin= 7 EnMin= -4020.57976246868     IErMin= 7 ErrMin= 7.91D-05
 ErrMax= 7.91D-05  0.00D+00 EMaxC= 1.00D-01 BMatC= 8.90D-06 BMatP= 6.61D-05
 IDIUse=1 WtCom= 1.00D+00 WtEn= 0.00D+00
 Coeff-Com: -0.335D-01 0.444D-01-0.306D-01-0.977D-02 0.630D-01 0.305D+00
 Coeff-Com:  0.661D+00
 Coeff:     -0.335D-01 0.444D-01-0.306D-01-0.977D-02 0.630D-01 0.305D+00
 Coeff:      0.661D+00
 Gap=     0.188 Goal=   None    Shift=    0.000
 RMSDP=3.88D-06 MaxDP=5.74D-04 DE=-7.88D-05 OVMax= 9.37D-04

 Cycle   8  Pass 1  IDiag  1:
 RMSU=  3.01D-06    CP:  9.98D-01  3.00D+00  1.30D+00  8.35D-01  8.26D-01
                    CP:  9.31D-01  9.89D-01
 E= -4020.57977604165     Delta-E=       -0.000013572968 Rises=F Damp=F
 DIIS: error= 2.87D-05 at cycle   8 NSaved=   8.
 NSaved= 8 IEnMin= 8 EnMin= -4020.57977604165     IErMin= 8 ErrMin= 2.87D-05
 ErrMax= 2.87D-05  0.00D+00 EMaxC= 1.00D-01 BMatC= 9.55D-07 BMatP= 8.90D-06
 IDIUse=1 WtCom= 1.00D+00 WtEn= 0.00D+00
 Coeff-Com: -0.278D-02 0.371D-02-0.524D-02-0.156D-01-0.376D-01-0.182D-01
 Coeff-Com:  0.212D+00 0.864D+00
 Coeff:     -0.278D-02 0.371D-02-0.524D-02-0.156D-01-0.376D-01-0.182D-01
 Coeff:      0.212D+00 0.864D+00
 Gap=     0.188 Goal=   None    Shift=    0.000
 RMSDP=1.95D-06 MaxDP=1.42D-04 DE=-1.36D-05 OVMax= 5.67D-04

 Cycle   9  Pass 1  IDiag  1:
 RMSU=  1.15D-06    CP:  9.98D-01  3.00D+00  1.30D+00  8.36D-01  8.36D-01
                    CP:  9.69D-01  1.12D+00  1.01D+00
 E= -4020.57977873902     Delta-E=       -0.000002697368 Rises=F Damp=F
 DIIS: error= 1.03D-05 at cycle   9 NSaved=   9.
 NSaved= 9 IEnMin= 9 EnMin= -4020.57977873902     IErMin= 9 ErrMin= 1.03D-05
 ErrMax= 1.03D-05  0.00D+00 EMaxC= 1.00D-01 BMatC= 2.34D-07 BMatP= 9.55D-07
 IDIUse=1 WtCom= 1.00D+00 WtEn= 0.00D+00
 Coeff-Com:  0.291D-02-0.386D-02 0.131D-02-0.642D-02-0.265D-01-0.500D-01
 Coeff-Com:  0.788D-02 0.407D+00 0.668D+00
 Coeff:      0.291D-02-0.386D-02 0.131D-02-0.642D-02-0.265D-01-0.500D-01
 Coeff:      0.788D-02 0.407D+00 0.668D+00
 Gap=     0.188 Goal=   None    Shift=    0.000
 RMSDP=7.14D-07 MaxDP=4.88D-05 DE=-2.70D-06 OVMax= 2.13D-04

 Cycle  10  Pass 1  IDiag  1:
 RMSU=  5.32D-07    CP:  9.98D-01  3.00D+00  1.30D+00  8.36D-01  8.36D-01
                    CP:  9.80D-01  1.15D+00  1.11D+00  9.64D-01
 E= -4020.57977915347     Delta-E=       -0.000000414457 Rises=F Damp=F
 DIIS: error= 4.09D-06 at cycle  10 NSaved=  10.
 NSaved=10 IEnMin=10 EnMin= -4020.57977915347     IErMin=10 ErrMin= 4.09D-06
 ErrMax= 4.09D-06  0.00D+00 EMaxC= 1.00D-01 BMatC= 3.22D-08 BMatP= 2.34D-07
 IDIUse=1 WtCom= 1.00D+00 WtEn= 0.00D+00
 Coeff-Com:  0.149D-02-0.198D-02 0.147D-02 0.660D-03-0.233D-02-0.149D-01
 Coeff-Com: -0.386D-01-0.124D-01 0.261D+00 0.806D+00
 Coeff:      0.149D-02-0.198D-02 0.147D-02 0.660D-03-0.233D-02-0.149D-01
 Coeff:     -0.386D-01-0.124D-01 0.261D+00 0.806D+00
 Gap=     0.188 Goal=   None    Shift=    0.000
 RMSDP=3.16D-07 MaxDP=1.75D-05 DE=-4.14D-07 OVMax= 1.08D-04

 Cycle  11  Pass 1  IDiag  1:
 RMSU=  1.78D-07    CP:  9.98D-01  3.00D+00  1.30D+00  8.36D-01  8.36D-01
                    CP:  9.82D-01  1.16D+00  1.14D+00  1.15D+00  9.61D-01
 E= -4020.57977921765     Delta-E=       -0.000000064174 Rises=F Damp=F
 DIIS: error= 1.86D-06 at cycle  11 NSaved=  11.
 NSaved=11 IEnMin=11 EnMin= -4020.57977921765     IErMin=11 ErrMin= 1.86D-06
 ErrMax= 1.86D-06  0.00D+00 EMaxC= 1.00D-01 BMatC= 8.68D-09 BMatP= 3.22D-08
 IDIUse=1 WtCom= 1.00D+00 WtEn= 0.00D+00
 Coeff-Com:  0.272D-03-0.361D-03 0.576D-03 0.146D-02 0.338D-02 0.731D-03
 Coeff-Com: -0.217D-01-0.718D-01 0.267D-01 0.424D+00 0.637D+00
 Coeff:      0.272D-03-0.361D-03 0.576D-03 0.146D-02 0.338D-02 0.731D-03
 Coeff:     -0.217D-01-0.718D-01 0.267D-01 0.424D+00 0.637D+00
 Gap=     0.188 Goal=   None    Shift=    0.000
 RMSDP=1.22D-07 MaxDP=1.23D-05 DE=-6.42D-08 OVMax= 3.80D-05

 Cycle  12  Pass 1  IDiag  1:
 RMSU=  7.51D-08    CP:  9.98D-01  3.00D+00  1.30D+00  8.36D-01  8.36D-01
                    CP:  9.82D-01  1.16D+00  1.15D+00  1.18D+00  1.08D+00
                    CP:  7.94D-01
 E= -4020.57977922995     Delta-E=       -0.000000012304 Rises=F Damp=F
 DIIS: error= 6.17D-07 at cycle  12 NSaved=  12.
 NSaved=12 IEnMin=12 EnMin= -4020.57977922995     IErMin=12 ErrMin= 6.17D-07
 ErrMax= 6.17D-07  0.00D+00 EMaxC= 1.00D-01 BMatC= 6.84D-10 BMatP= 8.68D-09
 IDIUse=1 WtCom= 1.00D+00 WtEn= 0.00D+00
 Coeff-Com: -0.633D-04 0.851D-04 0.587D-04 0.425D-03 0.139D-02 0.178D-02
 Coeff-Com: -0.364D-02-0.222D-01-0.218D-01 0.527D-01 0.235D+00 0.756D+00
 Coeff:     -0.633D-04 0.851D-04 0.587D-04 0.425D-03 0.139D-02 0.178D-02
 Coeff:     -0.364D-02-0.222D-01-0.218D-01 0.527D-01 0.235D+00 0.756D+00
 Gap=     0.188 Goal=   None    Shift=    0.000
 RMSDP=3.82D-08 MaxDP=2.76D-06 DE=-1.23D-08 OVMax= 1.83D-05

 Cycle  13  Pass 1  IDiag  1:
 RMSU=  2.86D-08    CP:  9.98D-01  3.00D+00  1.30D+00  8.36D-01  8.36D-01
                    CP:  9.82D-01  1.16D+00  1.15D+00  1.20D+00  1.10D+00
                    CP:  8.97D-01  1.03D+00
 E= -4020.57977923181     Delta-E=       -0.000000001863 Rises=F Damp=F
 DIIS: error= 4.02D-07 at cycle  13 NSaved=  13.
 NSaved=13 IEnMin=13 EnMin= -4020.57977923181     IErMin=13 ErrMin= 4.02D-07
 ErrMax= 4.02D-07  0.00D+00 EMaxC= 1.00D-01 BMatC= 9.93D-11 BMatP= 6.84D-10
 IDIUse=1 WtCom= 1.00D+00 WtEn= 0.00D+00
 Coeff-Com: -0.456D-04 0.606D-04-0.736D-04-0.170D-03-0.323D-03 0.143D-03
 Coeff-Com:  0.287D-02 0.867D-02-0.100D-01-0.654D-01-0.583D-01 0.194D+00
 Coeff-Com:  0.928D+00
 Coeff:     -0.456D-04 0.606D-04-0.736D-04-0.170D-03-0.323D-03 0.143D-03
 Coeff:      0.287D-02 0.867D-02-0.100D-01-0.654D-01-0.583D-01 0.194D+00
 Coeff:      0.928D+00
 Gap=     0.188 Goal=   None    Shift=    0.000
 RMSDP=2.23D-08 MaxDP=1.64D-06 DE=-1.86D-09 OVMax= 1.06D-05

 Cycle  14  Pass 1  IDiag  1:
 RMSU=  1.24D-08    CP:  9.98D-01  3.00D+00  1.30D+00  8.36D-01  8.36D-01
                    CP:  9.82D-01  1.16D+00  1.15D+00  1.20D+00  1.11D+00
                    CP:  9.46D-01  1.22D+00  1.16D+00
 E= -4020.57977923272     Delta-E=       -0.000000000906 Rises=F Damp=F
 DIIS: error= 1.84D-07 at cycle  14 NSaved=  14.
 NSaved=14 IEnMin=14 EnMin= -4020.57977923272     IErMin=14 ErrMin= 1.84D-07
 ErrMax= 1.84D-07  0.00D+00 EMaxC= 1.00D-01 BMatC= 2.34D-11 BMatP= 9.93D-11
 IDIUse=1 WtCom= 1.00D+00 WtEn= 0.00D+00
 Coeff-Com:  0.103D-05-0.165D-05-0.336D-04-0.133D-03-0.341D-03-0.231D-03
 Coeff-Com:  0.160D-02 0.683D-02-0.667D-03-0.330D-01-0.601D-01-0.488D-01
 Coeff-Com:  0.347D+00 0.788D+00
 Coeff:      0.103D-05-0.165D-05-0.336D-04-0.133D-03-0.341D-03-0.231D-03
 Coeff:      0.160D-02 0.683D-02-0.667D-03-0.330D-01-0.601D-01-0.488D-01
 Coeff:      0.347D+00 0.788D+00
 Gap=     0.188 Goal=   None    Shift=    0.000
 RMSDP=9.47D-09 MaxDP=6.11D-07 DE=-9.06D-10 OVMax= 5.38D-06

 Error on total polarization charges =  0.01145
 SCF Done:  E(RwB97XD) =  -4020.57977923     A.U. after   14 cycles
            NFock= 14  Conv=0.95D-08     -V/T= 2.0082
 KE= 3.987730971447D+03 PE=-4.438208850273D+04 EE= 1.885336274486D+04
 Leave Link  502 at Thu Aug  2 10:05:06 2018, MaxMem=   536870912 cpu:     15383.4
 (Enter /local/isv/Gaussian/09_D01.PG/g09/l801.exe)
 DoSCS=F DFT=T ScalE2(SS,OS)=  1.000000  1.000000
 ExpMin= 1.27D-01 ExpMax= 2.52D+04 ExpMxC= 3.78D+03 IAcc=3 IRadAn=         5 AccDes= 0.00D+00
 HarFok:  IExCor=  205 AccDes= 0.00D+00 IRadAn=         5 IDoV=-2 UseB2=F ITyADJ=14
 ICtDFT= 12500011 ScaDFX=  1.000000  1.000000  1.000000  1.000000
 Largest valence mixing into a core orbital is  1.13D-04
 Largest core mixing into a valence orbital is  2.55D-05
 Range of M.O.s used for correlation:    97  1408
 NBasis=  1408 NAE=   290 NBE=   290 NFC=    96 NFV=     0
 NROrb=   1312 NOA=   194 NOB=   194 NVA=  1118 NVB=  1118
 Leave Link  801 at Thu Aug  2 10:05:06 2018, MaxMem=   536870912 cpu:         6.1
 (Enter /local/isv/Gaussian/09_D01.PG/g09/l914.exe)
 RHF ground state
 MDV=   536870912 DFT=T DoStab=F Mixed=T DoRPA=T DoScal=F NonHer=T
 Would need an additional       2956696900000 words for in-memory AO integral storage.
 NEqPCM:  Using non-equilibrium solvation (IEInf=1, Eps=   4.2000, EpsInf=   1.7778)
 Inv3:  Mode=1 IEnd=   100676547.
 Iteration    1 A*A^-1 deviation from unit magnitude is 1.22D-14 for   1451.
 Iteration    1 A*A^-1 deviation from orthogonality  is 6.64D-15 for   5782   2527.
 Iteration    1 A^-1*A deviation from unit magnitude is 1.07D-14 for   2541.
 Iteration    1 A^-1*A deviation from orthogonality  is 2.90D-14 for   4940   4918.
 Making orbital integer symmetry assigments:
 Orbital symmetries:
       Occupied  (A) (A) (A) (A) (A) (A) (A) (A) (A) (A) (A) (A)
                 (A) (A) (A) (A) (A) (A) (A) (A) (A) (A) (A) (A)
                 (A) (A) (A) (A) (A) (A) (A) (A) (A) (A) (A) (A)
                 (A) (A) (A) (A) (A) (A) (A) (A) (A) (A) (A) (A)
                 (A) (A) (A) (A) (A) (A) (A) (A) (A) (A) (A) (A)
                 (A) (A) (A) (A) (A) (A) (A) (A) (A) (A) (A) (A)
                 (A) (A) (A) (A) (A) (A) (A) (A) (A) (A) (A) (A)
                 (A) (A) (A) (A) (A) (A) (A) (A) (A) (A) (A) (A)
                 (A) (A) (A) (A) (A) (A) (A) (A) (A) (A) (A) (A)
                 (A) (A) (A) (A) (A) (A) (A) (A) (A) (A) (A) (A)
                 (A) (A) (A) (A) (A) (A) (A) (A) (A) (A) (A) (A)
                 (A) (A) (A) (A) (A) (A) (A) (A) (A) (A) (A) (A)
                 (A) (A) (A) (A) (A) (A) (A) (A) (A) (A) (A) (A)
                 (A) (A) (A) (A) (A) (A) (A) (A) (A) (A) (A) (A)
                 (A) (A) (A) (A) (A) (A) (A) (A) (A) (A) (A) (A)
                 (A) (A) (A) (A) (A) (A) (A) (A) (A) (A) (A) (A)
                 (A) (A) (A) (A) (A) (A) (A) (A) (A) (A) (A) (A)
                 (A) (A) (A) (A) (A) (A) (A) (A) (A) (A) (A) (A)
                 (A) (A) (A) (A) (A) (A) (A) (A) (A) (A) (A) (A)
                 (A) (A) (A) (A) (A) (A) (A) (A) (A) (A) (A) (A)
                 (A) (A) (A) (A) (A) (A) (A) (A) (A) (A) (A) (A)
                 (A) (A) (A) (A) (A) (A) (A) (A) (A) (A) (A) (A)
                 (A) (A) (A) (A) (A) (A) (A) (A) (A) (A) (A) (A)
                 (A) (A) (A) (A) (A) (A) (A) (A) (A) (A) (A) (A)
                 (A) (A)
       Virtual   (A) (A) (A) (A) (A) (A) (A) (A) (A) (A) (A) (A)
                 (A) (A) (A) (A) (A) (A) (A) (A) (A) (A) (A) (A)
                 (A) (A) (A) (A) (A) (A) (A) (A) (A) (A) (A) (A)
                 (A) (A) (A) (A) (A) (A) (A) (A) (A) (A) (A) (A)
                 (A) (A) (A) (A) (A) (A) (A) (A) (A) (A) (A) (A)
                 (A) (A) (A) (A) (A) (A) (A) (A) (A) (A) (A) (A)
                 (A) (A) (A) (A) (A) (A) (A) (A) (A) (A) (A) (A)
                 (A) (A) (A) (A) (A) (A) (A) (A) (A) (A) (A) (A)
                 (A) (A) (A) (A) (A) (A) (A) (A) (A) (A) (A) (A)
                 (A) (A) (A) (A) (A) (A) (A) (A) (A) (A) (A) (A)
                 (A) (A) (A) (A) (A) (A) (A) (A) (A) (A) (A) (A)
                 (A) (A) (A) (A) (A) (A) (A) (A) (A) (A) (A) (A)
                 (A) (A) (A) (A) (A) (A) (A) (A) (A) (A) (A) (A)
                 (A) (A) (A) (A) (A) (A) (A) (A) (A) (A) (A) (A)
                 (A) (A) (A) (A) (A) (A) (A) (A) (A) (A) (A) (A)
                 (A) (A) (A) (A) (A) (A) (A) (A) (A) (A) (A) (A)
                 (A) (A) (A) (A) (A) (A) (A) (A) (A) (A) (A) (A)
                 (A) (A) (A) (A) (A) (A) (A) (A) (A) (A) (A) (A)
                 (A) (A) (A) (A) (A) (A) (A) (A) (A) (A) (A) (A)
                 (A) (A) (A) (A) (A) (A) (A) (A) (A) (A) (A) (A)
                 (A) (A) (A) (A) (A) (A) (A) (A) (A) (A) (A) (A)
                 (A) (A) (A) (A) (A) (A) (A) (A) (A) (A) (A) (A)
                 (A) (A) (A) (A) (A) (A) (A) (A) (A) (A) (A) (A)
                 (A) (A) (A) (A) (A) (A) (A) (A) (A) (A) (A) (A)
                 (A) (A) (A) (A) (A) (A) (A) (A) (A) (A) (A) (A)
                 (A) (A) (A) (A) (A) (A) (A) (A) (A) (A) (A) (A)
                 (A) (A) (A) (A) (A) (A) (A) (A) (A) (A) (A) (A)
                 (A) (A) (A) (A) (A) (A) (A) (A) (A) (A) (A) (A)
                 (A) (A) (A) (A) (A) (A) (A) (A) (A) (A) (A) (A)
                 (A) (A) (A) (A) (A) (A) (A) (A) (A) (A) (A) (A)
                 (A) (A) (A) (A) (A) (A) (A) (A) (A) (A) (A) (A)
                 (A) (A) (A) (A) (A) (A) (A) (A) (A) (A) (A) (A)
                 (A) (A) (A) (A) (A) (A) (A) (A) (A) (A) (A) (A)
                 (A) (A) (A) (A) (A) (A) (A) (A) (A) (A) (A) (A)
                 (A) (A) (A) (A) (A) (A) (A) (A) (A) (A) (A) (A)
                 (A) (A) (A) (A) (A) (A) (A) (A) (A) (A) (A) (A)
                 (A) (A) (A) (A) (A) (A) (A) (A) (A) (A) (A) (A)
                 (A) (A) (A) (A) (A) (A) (A) (A) (A) (A) (A) (A)
                 (A) (A) (A) (A) (A) (A) (A) (A) (A) (A) (A) (A)
                 (A) (A) (A) (A) (A) (A) (A) (A) (A) (A) (A) (A)
                 (A) (A) (A) (A) (A) (A) (A) (A) (A) (A) (A) (A)
                 (A) (A) (A) (A) (A) (A) (A) (A) (A) (A) (A) (A)
                 (A) (A) (A) (A) (A) (A) (A) (A) (A) (A) (A) (A)
                 (A) (A) (A) (A) (A) (A) (A) (A) (A) (A) (A) (A)
                 (A) (A) (A) (A) (A) (A) (A) (A) (A) (A) (A) (A)
                 (A) (A) (A) (A) (A) (A) (A) (A) (A) (A) (A) (A)
                 (A) (A) (A) (A) (A) (A) (A) (A) (A) (A) (A) (A)
                 (A) (A) (A) (A) (A) (A) (A) (A) (A) (A) (A) (A)
                 (A) (A) (A) (A) (A) (A) (A) (A) (A) (A) (A) (A)
                 (A) (A) (A) (A) (A) (A) (A) (A) (A) (A) (A) (A)
                 (A) (A) (A) (A) (A) (A) (A) (A) (A) (A) (A) (A)
                 (A) (A) (A) (A) (A) (A) (A) (A) (A) (A) (A) (A)
                 (A) (A) (A) (A) (A) (A) (A) (A) (A) (A) (A) (A)
                 (A) (A) (A) (A) (A) (A) (A) (A) (A) (A) (A) (A)
                 (A) (A) (A) (A) (A) (A) (A) (A) (A) (A) (A) (A)
                 (A) (A) (A) (A) (A) (A) (A) (A) (A) (A) (A) (A)
                 (A) (A) (A) (A) (A) (A) (A) (A) (A) (A) (A) (A)
                 (A) (A) (A) (A) (A) (A) (A) (A) (A) (A) (A) (A)
                 (A) (A) (A) (A) (A) (A) (A) (A) (A) (A) (A) (A)
                 (A) (A) (A) (A) (A) (A) (A) (A) (A) (A) (A) (A)
                 (A) (A) (A) (A) (A) (A) (A) (A) (A) (A) (A) (A)
                 (A) (A) (A) (A) (A) (A) (A) (A) (A) (A) (A) (A)
                 (A) (A) (A) (A) (A) (A) (A) (A) (A) (A) (A) (A)
                 (A) (A) (A) (A) (A) (A) (A) (A) (A) (A) (A) (A)
                 (A) (A) (A) (A) (A) (A) (A) (A) (A) (A) (A) (A)
                 (A) (A) (A) (A) (A) (A) (A) (A) (A) (A) (A) (A)
                 (A) (A) (A) (A) (A) (A) (A) (A) (A) (A) (A) (A)
                 (A) (A) (A) (A) (A) (A) (A) (A) (A) (A) (A) (A)
                 (A) (A) (A) (A) (A) (A) (A) (A) (A) (A) (A) (A)
                 (A) (A) (A) (A) (A) (A) (A) (A) (A) (A) (A) (A)
                 (A) (A) (A) (A) (A) (A) (A) (A) (A) (A) (A) (A)
                 (A) (A) (A) (A) (A) (A) (A) (A) (A) (A) (A) (A)
                 (A) (A) (A) (A) (A) (A) (A) (A) (A) (A) (A) (A)
                 (A) (A) (A) (A) (A) (A) (A) (A) (A) (A) (A) (A)
                 (A) (A) (A) (A) (A) (A) (A) (A) (A) (A) (A) (A)
                 (A) (A) (A) (A) (A) (A) (A) (A) (A) (A) (A) (A)
                 (A) (A) (A) (A) (A) (A) (A) (A) (A) (A) (A) (A)
                 (A) (A) (A) (A) (A) (A) (A) (A) (A) (A) (A) (A)
                 (A) (A) (A) (A) (A) (A) (A) (A) (A) (A) (A) (A)
                 (A) (A) (A) (A) (A) (A) (A) (A) (A) (A) (A) (A)
                 (A) (A) (A) (A) (A) (A) (A) (A) (A) (A) (A) (A)
                 (A) (A) (A) (A) (A) (A) (A) (A) (A) (A) (A) (A)
                 (A) (A) (A) (A) (A) (A) (A) (A) (A) (A) (A) (A)
                 (A) (A) (A) (A) (A) (A) (A) (A) (A) (A) (A) (A)
                 (A) (A) (A) (A) (A) (A) (A) (A) (A) (A) (A) (A)
                 (A) (A) (A) (A) (A) (A) (A) (A) (A) (A) (A) (A)
                 (A) (A) (A) (A) (A) (A) (A) (A) (A) (A) (A) (A)
                 (A) (A) (A) (A) (A) (A) (A) (A) (A) (A) (A) (A)
                 (A) (A) (A) (A) (A) (A) (A) (A) (A) (A) (A) (A)
                 (A) (A) (A) (A) (A) (A) (A) (A) (A) (A) (A) (A)
                 (A) (A) (A) (A) (A) (A) (A) (A) (A) (A) (A) (A)
                 (A) (A) (A) (A) (A) (A) (A) (A) (A) (A) (A) (A)
                 (A) (A) (A) (A) (A) (A) (A) (A) (A) (A) (A) (A)
                 (A) (A)
    40 initial guesses have been made.
 Convergence on wavefunction:    0.001000000000000
 Davidson Disk Diagonalization:  ConvIn= 1.00D-03 SkipCon=T Conv= 1.00D-03.
 Max sub-space:   200 roots to seek:    40 dimension of matrix:       433784
 Iteration     1 Dimension    40 NMult     0 NNew     40
 CISAX will form    14 AO SS matrices at one time.
 NMat=    14 NSing=    14 JSym2X= 0.
 FoFJK:  IHMeth= 1 ICntrl=       0 DoSepK=T KAlg= 0 I1Cent=   0 FoldK=F
 IRaf=         1 NMat=  28 IRICut=       1 DoRegI=T DoRafI=F ISym2E= 0.
 NMat=    14 NSing=    14 JSym2X= 0.
 NMat=    12 NSing=    12 JSym2X= 0.
 New state      2 was old state      3
 New state      3 was old state      6
 New state      4 was old state      8
 New state      5 was old state     10
 New state      6 was old state      7
 New state      7 was old state      9
 New state      8 was old state     16
 New state      9 was old state     14
 New state     10 was old state     15
 Excitation Energies [eV] at current iteration:
 Root      1 :     2.838714031217900
 Root      2 :     2.881520319354077
 Root      3 :     2.966026754550528
 Root      4 :     2.976337183559011
 Root      5 :     2.978412947089953
 Root      6 :     2.985165165432719
 Root      7 :     2.992914739912885
 Root      8 :     2.996238475880396
 Root      9 :     3.000987870031872
 Root     10 :     3.009765894750294
 Root     11 :     3.016341980667069
 Root     12 :     3.020390366691895
 Root     13 :     3.107346907889330
 Root     14 :     3.301587437922116
 Root     15 :     3.323452368337875
 Root     16 :     3.517530197831528
 Root     17 :     3.521634762610579
 Root     18 :     3.543048671058923
 Root     19 :     3.560264670889725
 Root     20 :     3.593910204369471
 Root     21 :     4.295518775317563
 Root     22 :     4.308325942078175
 Root     23 :     4.320290163058940
 Root     24 :     4.325795603733870
 Root     25 :     4.381907448737741
 Root     26 :     4.390008031860536
 Root     27 :     4.461424634639982
 Root     28 :     4.483664727003992
 Root     29 :     4.486337144266398
 Root     30 :     4.508513019601806
 Root     31 :     4.532765237540563
 Root     32 :     4.543352610324622
 Root     33 :     4.570096544748547
 Root     34 :     4.910482905341683
 Root     35 :     4.962986824746386
 Root     36 :     4.991317047495883
 Root     37 :     5.045252978673815
 Root     38 :     5.120254692937693
 Root     39 :     5.157782041412555
 Root     40 :     5.220218998477804
 Iteration     2 Dimension    60 NMult    40 NNew     20
 CISAX will form    10 AO SS matrices at one time.
 NMat=    10 NSing=    10 JSym2X= 0.
 NMat=    10 NSing=    10 JSym2X= 0.
 New state      1 was old state      7
 Root      1 not converged, maximum delta is    0.301486018094456
 New state      2 was old state      8
 Root      2 not converged, maximum delta is    0.199254494461520
 New state      3 was old state      9
 Root      3 not converged, maximum delta is    0.171302305176056
 New state      4 was old state     10
 Root      4 not converged, maximum delta is    0.206341148862565
 New state      5 was old state      1
 Root      5 not converged, maximum delta is    0.323960092863008
 New state      6 was old state      5
 Root      6 not converged, maximum delta is    0.245352799013241
 New state      7 was old state      2
 Root      7 not converged, maximum delta is    0.268964726748636
 New state      8 was old state      4
 Root      8 not converged, maximum delta is    0.320551328403352
 New state      9 was old state      6
 Root      9 not converged, maximum delta is    0.404480775221567
 New state     10 was old state      3
 Root     10 not converged, maximum delta is    0.490759477377567
 Excitation Energies [eV] at current iteration:
 Root      1 :     2.687644453301483   Change is   -0.305270286611402
 Root      2 :     2.692022861747740   Change is   -0.304215614132656
 Root      3 :     2.695925254974890   Change is   -0.305062615056981
 Root      4 :     2.737143664388924   Change is   -0.272622230361370
 Root      5 :     2.748723898925949   Change is   -0.089990132291951
 Root      6 :     2.770606530252688   Change is   -0.207806416837264
 Root      7 :     2.775154639764153   Change is   -0.106365679589924
 Root      8 :     2.792047573394890   Change is   -0.184289610164121
 Root      9 :     2.802195169376419   Change is   -0.182969996056300
 Root     10 :     2.819573008371162   Change is   -0.146453746179366
 Iteration     3 Dimension    80 NMult    60 NNew     20
 CISAX will form    10 AO SS matrices at one time.
 NMat=    10 NSing=    10 JSym2X= 0.
 NMat=    10 NSing=    10 JSym2X= 0.
 New state      1 was old state      7
 Root      1 not converged, maximum delta is    0.399477354107762
 New state      2 was old state      1
 Root      2 not converged, maximum delta is    0.084790547793958
 New state      3 was old state      2
 Root      3 not converged, maximum delta is    0.084797019161313
 New state      4 was old state      3
 Root      4 not converged, maximum delta is    0.051148403591175
 Root      5 not converged, maximum delta is    0.150412346277786
 New state      6 was old state      4
 Root      6 not converged, maximum delta is    0.171497794215168
 New state      7 was old state      6
 Root      7 not converged, maximum delta is    0.100593481464863
 Root      8 not converged, maximum delta is    0.301976610229410
 Root      9 not converged, maximum delta is    0.133629983835769
 Root     10 not converged, maximum delta is    0.098251156203685
 Excitation Energies [eV] at current iteration:
 Root      1 :     2.578373943254850   Change is   -0.196780696509303
 Root      2 :     2.666881205276986   Change is   -0.020763248024497
 Root      3 :     2.670160122337363   Change is   -0.021862739410377
 Root      4 :     2.676215295834617   Change is   -0.019709959140274
 Root      5 :     2.714416751378058   Change is   -0.034307147547891
 Root      6 :     2.729450622615469   Change is   -0.007693041773455
 Root      7 :     2.741179943947676   Change is   -0.029426586305012
 Root      8 :     2.752613494808760   Change is   -0.039434078586130
 Root      9 :     2.768518549640133   Change is   -0.033676619736287
 Root     10 :     2.789381061436715   Change is   -0.030191946934447
 Iteration     4 Dimension   100 NMult    80 NNew     20
 CISAX will form    10 AO SS matrices at one time.
 NMat=    10 NSing=    10 JSym2X= 0.
 NMat=    10 NSing=    10 JSym2X= 0.
 Root      1 not converged, maximum delta is    0.072314049173682
 New state      2 was old state      5
 Root      2 not converged, maximum delta is    0.486839374726974
 New state      3 was old state      2
 Root      3 not converged, maximum delta is    0.080127136438751
 New state      4 was old state      3
 Root      4 not converged, maximum delta is    0.079549114957577
 New state      5 was old state      4
 Root      5 not converged, maximum delta is    0.033509486110680
 Root      6 not converged, maximum delta is    0.291926862447603
 Root      7 not converged, maximum delta is    0.249647809107886
 Root      8 not converged, maximum delta is    0.381331233087262
 New state      9 was old state     10
 Root      9 not converged, maximum delta is    0.548513948789852
 New state     10 was old state      9
 Root     10 not converged, maximum delta is    0.010084226861290
 Excitation Energies [eV] at current iteration:
 Root      1 :     2.483435402439750   Change is   -0.094938540815100
 Root      2 :     2.557306234456203   Change is   -0.157110516921856
 Root      3 :     2.665853908736013   Change is   -0.001027296540972
 Root      4 :     2.668549951771412   Change is   -0.001610170565951
 Root      5 :     2.674909085767052   Change is   -0.001306210067565
 Root      6 :     2.723740169790279   Change is   -0.005710452825190
 Root      7 :     2.733807703807975   Change is   -0.007372240139701
 Root      8 :     2.737756451112443   Change is   -0.014857043696317
 Root      9 :     2.750102070403378   Change is   -0.039278991033337
 Root     10 :     2.766478133796257   Change is   -0.002040415843875
 Iteration     5 Dimension   120 NMult   100 NNew     20
 CISAX will form    10 AO SS matrices at one time.
 NMat=    10 NSing=    10 JSym2X= 0.
 NMat=    10 NSing=    10 JSym2X= 0.
 Root      1 not converged, maximum delta is    0.047464782964709
 Root      2 not converged, maximum delta is    0.069413978768115
 Root      3 not converged, maximum delta is    0.014064655124601
 Root      4 not converged, maximum delta is    0.031609576158212
 Root      5 not converged, maximum delta is    0.010187686768144
 Root      6 not converged, maximum delta is    0.189376074652498
 New state      7 was old state      8
 Root      7 not converged, maximum delta is    0.227473951965324
 New state      8 was old state      7
 Root      8 not converged, maximum delta is    0.100496328061933
 Root      9 not converged, maximum delta is    0.017373166809463
 Root     10 not converged, maximum delta is    0.048879452686587
 Excitation Energies [eV] at current iteration:
 Root      1 :     2.467918487973586   Change is   -0.015516914466164
 Root      2 :     2.485696721114961   Change is   -0.071609513341241
 Root      3 :     2.665423469320286   Change is   -0.000430439415727
 Root      4 :     2.667505221550926   Change is   -0.001044730220486
 Root      5 :     2.674585337906428   Change is   -0.000323747860623
 Root      6 :     2.718106917595577   Change is   -0.005633252194702
 Root      7 :     2.727461873372813   Change is   -0.010294577739630
 Root      8 :     2.731622771933749   Change is   -0.002184931874225
 Root      9 :     2.749319756712283   Change is   -0.000782313691095
 Root     10 :     2.766152937872390   Change is   -0.000325195923868
 Iteration     6 Dimension   140 NMult   120 NNew     20
 CISAX will form    10 AO SS matrices at one time.
 NMat=    10 NSing=    10 JSym2X= 0.
 NMat=    10 NSing=    10 JSym2X= 0.
 Root      1 not converged, maximum delta is    0.032563356230812
 Root      2 not converged, maximum delta is    0.032012263526296
 Root      3 not converged, maximum delta is    0.008332655534197
 Root      4 not converged, maximum delta is    0.011253206689939
 Root      5 not converged, maximum delta is    0.006437997437687
 Root      6 not converged, maximum delta is    0.062597522168868
 Root      7 not converged, maximum delta is    0.075304555566898
 Root      8 not converged, maximum delta is    0.078219218223473
 Root      9 not converged, maximum delta is    0.012686710726611
 Root     10 not converged, maximum delta is    0.078108276038728
 Excitation Energies [eV] at current iteration:
 Root      1 :     2.465792350651336   Change is   -0.002126137322249
 Root      2 :     2.473616936669445   Change is   -0.012079784445516
 Root      3 :     2.665310242941449   Change is   -0.000113226378838
 Root      4 :     2.667302355224053   Change is   -0.000202866326873
 Root      5 :     2.674501082724282   Change is   -0.000084255182146
 Root      6 :     2.715512248090975   Change is   -0.002594669504602
 Root      7 :     2.725739964908708   Change is   -0.001721908464105
 Root      8 :     2.730263998999398   Change is   -0.001358772934351
 Root      9 :     2.749176848529795   Change is   -0.000142908182488
 Root     10 :     2.765925371404391   Change is   -0.000227566467999
 Iteration     7 Dimension   160 NMult   140 NNew     20
 CISAX will form    10 AO SS matrices at one time.
 NMat=    10 NSing=    10 JSym2X= 0.
 NMat=    10 NSing=    10 JSym2X= 0.
 Root      1 not converged, maximum delta is    0.010197080539828
 Root      2 not converged, maximum delta is    0.010162898881987
 Root      3 not converged, maximum delta is    0.001136981193526
 Root      4 not converged, maximum delta is    0.001183128065809
 Root      5 has converged.
 Root      6 not converged, maximum delta is    0.007775988444851
 Root      7 not converged, maximum delta is    0.006801014655525
 Root      8 not converged, maximum delta is    0.010127892742411
 Root      9 not converged, maximum delta is    0.002400748388182
 Root     10 not converged, maximum delta is    0.023611264778970
 Excitation Energies [eV] at current iteration:
 Root      1 :     2.465433944486650   Change is   -0.000358406164687
 Root      2 :     2.472329179046358   Change is   -0.001287757623088
 Root      3 :     2.665296391571194   Change is   -0.000013851370254
 Root      4 :     2.667278036377450   Change is   -0.000024318846602
 Root      5 :     2.674491300957934   Change is   -0.000009781766348
 Root      6 :     2.715137204062614   Change is   -0.000375044028361
 Root      7 :     2.725569835645472   Change is   -0.000170129263235
 Root      8 :     2.730097075727090   Change is   -0.000166923272308
 Root      9 :     2.749154227982233   Change is   -0.000022620547563
 Root     10 :     2.765851671787079   Change is   -0.000073699617312
 Iteration     8 Dimension   178 NMult   160 NNew     18
 CISAX will form     9 AO SS matrices at one time.
 NMat=     9 NSing=     9 JSym2X= 0.
 NMat=     9 NSing=     9 JSym2X= 0.
 Root      1 has converged.
 Root      2 has converged.
 Root      3 has converged.
 Root      4 has converged.
 Root      5 has converged.
 Root      6 has converged.
 Root      7 has converged.
 Root      8 not converged, maximum delta is    0.001228458554309
 Root      9 has converged.
 Root     10 not converged, maximum delta is    0.003529145768514
 Excitation Energies [eV] at current iteration:
 Root      1 :     2.465402122040559   Change is   -0.000031822446091
 Root      2 :     2.472174922343848   Change is   -0.000154256702509
 Root      3 :     2.665293806175822   Change is   -0.000002585395372
 Root      4 :     2.667274981898832   Change is   -0.000003054478618
 Root      5 :     2.674490528814315   Change is   -0.000000772143619
 Root      6 :     2.715098472777318   Change is   -0.000038731285297
 Root      7 :     2.725549129219658   Change is   -0.000020706425815
 Root      8 :     2.730078701613318   Change is   -0.000018374113771
 Root      9 :     2.749148583810292   Change is   -0.000005644171941
 Root     10 :     2.765839041181697   Change is   -0.000012630605382
 Iteration     9 Dimension   182 NMult   178 NNew      4
 CISAX will form     4 AO SS matrices at one time.
 NMat=     4 NSing=     4 JSym2X= 0.
 Root      1 has converged.
 Root      2 has converged.
 Root      3 has converged.
 Root      4 has converged.
 Root      5 has converged.
 Root      6 has converged.
 Root      7 has converged.
 Root      8 has converged.
 Root      9 has converged.
 Root     10 has converged.
 Excitation Energies [eV] at current iteration:
 Root      1 :     2.465402033360526   Change is   -0.000000088680033
 Root      2 :     2.472172452217715   Change is   -0.000002470126134
 Root      3 :     2.665293694764446   Change is   -0.000000111411376
 Root      4 :     2.667274866109085   Change is   -0.000000115789747
 Root      5 :     2.674490480422584   Change is   -0.000000048391732
 Root      6 :     2.715096225563944   Change is   -0.000002247213373
 Root      7 :     2.725547617603686   Change is   -0.000001511615972
 Root      8 :     2.730076584241816   Change is   -0.000002117371502
 Root      9 :     2.749148107960835   Change is   -0.000000475849457
 Root     10 :     2.765836275016111   Change is   -0.000002766165587
 Convergence achieved on expansion vectors.
 ***********************************************************************
 Excited states from <AA,BB:AA,BB> singles matrix:
 ***********************************************************************
 
 1PDM for each excited state written to RWF  633
 Ground to excited state transition densities written to RWF  633
 Ground to excited state transition electric dipole moments (Au):
       state          X           Y           Z        Dip. S.      Osc.
         1         0.0414     -1.9271     -0.9361      4.5918      0.2774
         2        -0.0219     -0.9537      1.9521      4.7208      0.2859
         3         0.0117      0.0223     -0.0127      0.0008      0.0001
         4        -0.0065     -0.0194     -0.0166      0.0007      0.0000
         5         0.0020      0.0411     -0.0048      0.0017      0.0001
         6        -0.0216      0.0222     -0.0549      0.0040      0.0003
         7         0.0014      0.0297      0.0257      0.0015      0.0001
         8        -0.0096     -0.0350     -0.0041      0.0013      0.0001
         9         0.0216     -0.0423      0.0545      0.0052      0.0004
        10        -0.0056      0.0051      0.0203      0.0005      0.0000
 Ground to excited state transition velocity dipole moments (Au):
       state          X           Y           Z        Dip. S.      Osc.
         1        -0.0035      0.1764      0.0857      0.0385      0.2830
         2         0.0020      0.0875     -0.1794      0.0398      0.2924
         3        -0.0009     -0.0022      0.0012      0.0000      0.0000
         4         0.0003      0.0020      0.0020      0.0000      0.0001
         5        -0.0003     -0.0043      0.0004      0.0000      0.0001
         6         0.0017     -0.0029      0.0053      0.0000      0.0003
         7         0.0002     -0.0025     -0.0025      0.0000      0.0001
         8         0.0008      0.0032      0.0005      0.0000      0.0001
         9        -0.0017      0.0048     -0.0051      0.0001      0.0003
        10         0.0007     -0.0003     -0.0022      0.0000      0.0000
 Ground to excited state transition magnetic dipole moments (Au):
       state          X           Y           Z
         1        -0.0119      0.9964     -1.9108
         2        -0.0182     -2.0187     -0.9451
         3         0.1673     -0.6499     -0.3223
         4         0.0851     -0.1043     -0.1115
         5        -0.2976     -0.5775      0.3877
         6        -2.0883     -3.9005     -0.5765
         7         2.6869     -2.0055      3.8198
         8         3.8725     -1.4674     -3.3083
         9        -1.0196     -1.4060     -0.8492
        10        -0.6934     -0.7088     -0.8282
 Ground to excited state transition velocity quadrupole moments (Au):
       state          XX          YY          ZZ          XY          XZ          YZ
         1         0.0126      0.5976     -0.5756     -1.2292     -0.5915     -0.3529
         2        -0.0066      0.3522     -0.3510     -0.6155      1.2430      0.6004
         3         0.0021     -0.0112      0.0079      0.0161     -0.0245      0.0027
         4        -0.0016      0.0071     -0.0111     -0.0131     -0.0139      0.0065
         5         0.0047     -0.0142      0.0118      0.0255     -0.0078     -0.0076
         6         0.0210     -0.0293      0.0033      0.0193     -0.0550     -0.0296
         7        -0.0186      0.0066      0.0134      0.0181      0.0103      0.0006
         8         0.0039      0.0115     -0.0246     -0.0177     -0.0032     -0.0046
         9        -0.0191      0.0282     -0.0089     -0.0359      0.0193      0.0242
        10        -0.0295      0.0142      0.0073      0.0057      0.0125      0.0102
 <0|del|b> * <b|rxdel|0> + <0|del|b> * <b|delr+rdel|0>
 Rotatory Strengths (R) in cgs (10**-40 erg-esu-cm/Gauss)
       state          XX          YY          ZZ    R(velocity)    E-M Angle
         1        42.7593   -222.9698    273.9747     31.2547       88.37
         2       -21.7464    234.7008   -269.1419    -18.7292       90.93
         3         3.6058     -2.0314      4.8074      2.1273       63.49
         4        -1.5292     -0.6196     -0.7629     -0.9705      145.63
         5         9.3868      0.7415      9.3623      6.4969       34.48
         6        28.5964    -23.6539     28.0083     10.9836       80.39
         7       -15.9800    -31.0587     19.4772     -9.1872      102.69
         8       -21.9281      5.2111     -6.1232     -7.6134      100.56
         9        -8.1911     20.3333    -17.3245     -1.7274       93.04
        10         6.8869      4.5963     -1.0602      3.4743       59.63
 1/2[<0|r|b>*<b|rxdel|0> + (<0|rxdel|b>*<b|r|0>)*]
 Rotatory Strengths (R) in cgs (10**-40 erg-esu-cm/Gauss)
       state          XX          YY          ZZ     R(length)
         1         0.3493   1357.8346  -1264.9159     31.0893
         2        -0.2824  -1361.4774   1304.6773    -19.0275
         3        -1.3805     10.2479     -2.8970      1.9901
         4         0.3921     -1.4302     -1.3053     -0.7811
         5         0.4297     16.7998      1.3234      6.1843
         6       -31.9554     61.3238    -22.3757      2.3309
         7        -2.6078     42.1040    -69.4381     -9.9806
         8        26.3415    -36.2854     -9.5412     -6.4951
         9        15.5976    -42.1003     32.7154      2.0709
        10        -2.7215      2.5798     11.8724      3.9102
  1/2[<0|del|b>*<b|r|0> + (<0|r|b>*<b|del|0>)*] (Au)
       state          X           Y           Z        Dip. S.   Osc.(frdel)
         1        -0.0001     -0.3399     -0.0802      0.4202      0.2801
         2         0.0000     -0.0835     -0.3502      0.4337      0.2892
         3         0.0000      0.0000      0.0000      0.0001      0.0000
         4         0.0000      0.0000      0.0000      0.0001      0.0000
         5         0.0000     -0.0002      0.0000      0.0002      0.0001
         6         0.0000     -0.0001     -0.0003      0.0004      0.0003
         7         0.0000     -0.0001     -0.0001      0.0001      0.0001
         8         0.0000     -0.0001      0.0000      0.0001      0.0001
         9         0.0000     -0.0002     -0.0003      0.0005      0.0003
        10         0.0000      0.0000      0.0000      0.0000      0.0000

 Excitation energies and oscillator strengths:
 
 Excited State   1:      Singlet-A      2.4654 eV  502.90 nm  f=0.2774  <S**2>=0.000
     290 -> 293        0.10295
     290 -> 295        0.67222
 This state for optimization and/or second-order correction.
 Total Energy, E(TD-HF/TD-KS) =  -4020.48917737    
 Copying the excited state density for this state as the 1-particle RhoCI density.
 
 Excited State   2:      Singlet-A      2.4722 eV  501.52 nm  f=0.2859  <S**2>=0.000
     290 -> 294        0.68047
 
 Excited State   3:      Singlet-A      2.6653 eV  465.18 nm  f=0.0001  <S**2>=0.000
     285 -> 291       -0.12332
     285 -> 292       -0.26372
     286 -> 291       -0.17562
     286 -> 292       -0.15977
     286 -> 293        0.15400
     287 -> 291        0.10392
     287 -> 292       -0.11617
     288 -> 292        0.10445
     289 -> 291        0.42271
     289 -> 292       -0.22410
     289 -> 293       -0.15607
 
 Excited State   4:      Singlet-A      2.6673 eV  464.83 nm  f=0.0000  <S**2>=0.000
     285 -> 291       -0.11184
     286 -> 291        0.28151
     286 -> 292       -0.20221
     286 -> 293        0.10169
     287 -> 291       -0.19252
     287 -> 292       -0.23996
     287 -> 293       -0.25548
     288 -> 291        0.15030
     288 -> 292       -0.20090
     289 -> 291        0.10253
     289 -> 293        0.26044
 
 Excited State   5:      Singlet-A      2.6745 eV  463.58 nm  f=0.0001  <S**2>=0.000
     285 -> 291       -0.32238
     285 -> 292       -0.15096
     286 -> 293       -0.12892
     287 -> 292        0.31259
     288 -> 293        0.40919
     289 -> 293        0.13368
 
 Excited State   6:      Singlet-A      2.7151 eV  456.65 nm  f=0.0003  <S**2>=0.000
     285 -> 292        0.20946
     286 -> 292        0.23236
     287 -> 291       -0.26711
     287 -> 292        0.18010
     287 -> 293       -0.14881
     288 -> 293       -0.15632
     289 -> 291        0.32960
     290 -> 291       -0.22921
[...]
 Alpha virt. eigenvalues --    1.33252   1.33554   1.33914   1.34340   1.34412
 Alpha virt. eigenvalues --    1.34677   1.35257   1.35656   1.36146   1.36361
 Alpha virt. eigenvalues --    1.37088   1.37787   1.38570   1.39261   1.39334
 Alpha virt. eigenvalues --    1.39456   1.39606   1.40227   1.40972   1.41669
 Alpha virt. eigenvalues --    1.42353   1.42588   1.42924   1.43401   1.43511
 Alpha virt. eigenvalues --    1.43875   1.44151   1.44283   1.44547   1.44604
 Alpha virt. eigenvalues --    1.44824   1.45071   1.45617   1.46130   1.46418
 Alpha virt. eigenvalues --    1.46717   1.47157   1.48582   1.49310   1.49917
 Alpha virt. eigenvalues --    1.50313   1.50775   1.51176   1.51607   1.51743
 Alpha virt. eigenvalues --    1.52116   1.52265   1.52578   1.52982   1.53089
 Alpha virt. eigenvalues --    1.53237   1.53330   1.53446   1.53561   1.53667
 Alpha virt. eigenvalues --    1.54021   1.54128   1.54424   1.54635   1.54887
 Alpha virt. eigenvalues --    1.55164   1.55692   1.56321   1.56805   1.56947
 Alpha virt. eigenvalues --    1.57103   1.57625   1.57883   1.58402   1.58742
 Alpha virt. eigenvalues --    1.59405   1.59490   1.59805   1.60069   1.60363
 Alpha virt. eigenvalues --    1.60576   1.60893   1.61321   1.61546   1.61940
 Alpha virt. eigenvalues --    1.62144   1.62333   1.62640   1.63234   1.64157
 Alpha virt. eigenvalues --    1.64820   1.64998   1.65085   1.65272   1.65954
 Alpha virt. eigenvalues --    1.66165   1.66949   1.67887   1.69302   1.70531
 Alpha virt. eigenvalues --    1.70634   1.70747   1.71769   1.72874   1.72938
 Alpha virt. eigenvalues --    1.73129   1.73482   1.73570   1.73928   1.74284
 Alpha virt. eigenvalues --    1.74350   1.75602   1.76696   1.76769   1.76851
 Alpha virt. eigenvalues --    1.77545   1.77850   1.77992   1.78305   1.78332
 Alpha virt. eigenvalues --    1.78345   1.78448   1.78861   1.78943   1.79251
 Alpha virt. eigenvalues --    1.79414   1.79897   1.80551   1.80704   1.80894
 Alpha virt. eigenvalues --    1.81135   1.81289   1.81476   1.81586   1.81686
 Alpha virt. eigenvalues --    1.81742   1.81970   1.82163   1.82285   1.82587
 Alpha virt. eigenvalues --    1.82778   1.83056   1.83269   1.83740   1.84201
 Alpha virt. eigenvalues --    1.84449   1.84661   1.84746   1.85224   1.86333
 Alpha virt. eigenvalues --    1.87148   1.87232   1.87405   1.87963   1.88183
 Alpha virt. eigenvalues --    1.88276   1.88545   1.88699   1.88782   1.88829
 Alpha virt. eigenvalues --    1.89204   1.89325   1.90138   1.90574   1.90714
 Alpha virt. eigenvalues --    1.90850   1.91064   1.91573   1.91923   1.92509
 Alpha virt. eigenvalues --    1.93487   1.93578   1.94196   1.94719   1.95200
 Alpha virt. eigenvalues --    1.95368   1.95712   1.96045   1.96165   1.96586
 Alpha virt. eigenvalues --    1.96965   1.97472   1.97762   1.97914   1.98078
 Alpha virt. eigenvalues --    1.98395   1.99502   1.99634   1.99877   2.00126
 Alpha virt. eigenvalues --    2.00542   2.00867   2.01509   2.01832   2.02097
 Alpha virt. eigenvalues --    2.02233   2.02614   2.03000   2.03214   2.03505
 Alpha virt. eigenvalues --    2.04778   2.05047   2.05138   2.05515   2.05614
 Alpha virt. eigenvalues --    2.05714   2.05772   2.05919   2.06087   2.06353
 Alpha virt. eigenvalues --    2.06617   2.06941   2.07093   2.07277   2.07320
 Alpha virt. eigenvalues --    2.07347   2.07419   2.07493   2.07761   2.07860
 Alpha virt. eigenvalues --    2.07946   2.08068   2.08112   2.08165   2.08420
 Alpha virt. eigenvalues --    2.08828   2.09202   2.09353   2.09723   2.09853
 Alpha virt. eigenvalues --    2.09912   2.10400   2.10608   2.10795   2.11297
 Alpha virt. eigenvalues --    2.11340   2.11736   2.11907   2.12009   2.12128
 Alpha virt. eigenvalues --    2.12314   2.12584   2.12861   2.13120   2.13409
 Alpha virt. eigenvalues --    2.13516   2.14016   2.14599   2.15301   2.16223
 Alpha virt. eigenvalues --    2.16463   2.17182   2.17489   2.17850   2.18047
 Alpha virt. eigenvalues --    2.18807   2.19173   2.19698   2.20355   2.20477
 Alpha virt. eigenvalues --    2.21064   2.22229   2.22380   2.22671   2.23736
 Alpha virt. eigenvalues --    2.24540   2.24958   2.25188   2.25499   2.26128
 Alpha virt. eigenvalues --    2.26638   2.26706   2.26933   2.27098   2.27195
 Alpha virt. eigenvalues --    2.27489   2.28155   2.28498   2.29212   2.29474
 Alpha virt. eigenvalues --    2.30206   2.30323   2.30664   2.30778   2.31076
 Alpha virt. eigenvalues --    2.31089   2.31335   2.31437   2.31757   2.31840
 Alpha virt. eigenvalues --    2.32046   2.32285   2.32487   2.32518   2.34157
 Alpha virt. eigenvalues --    2.34608   2.35145   2.35212   2.35295   2.35587
 Alpha virt. eigenvalues --    2.35626   2.36095   2.36204   2.37008   2.37700
 Alpha virt. eigenvalues --    2.38057   2.38344   2.38441   2.38470   2.38721
 Alpha virt. eigenvalues --    2.38753   2.39146   2.39384   2.39544   2.39963
 Alpha virt. eigenvalues --    2.40171   2.40316   2.40359   2.40511   2.40735
 Alpha virt. eigenvalues --    2.40949   2.41250   2.41433   2.41651   2.42775
 Alpha virt. eigenvalues --    2.43211   2.44619   2.45378   2.45603   2.46005
 Alpha virt. eigenvalues --    2.46030   2.46609   2.47050   2.47805   2.48821
 Alpha virt. eigenvalues --    2.51764   2.51985   2.52143   2.52656   2.52910
 Alpha virt. eigenvalues --    2.53097   2.53482   2.53547   2.53860   2.54240
 Alpha virt. eigenvalues --    2.54369   2.54624   2.55120   2.55288   2.55616
 Alpha virt. eigenvalues --    2.56200   2.56579   2.56674   2.56804   2.57032
 Alpha virt. eigenvalues --    2.57243   2.57376   2.57579   2.57711   2.57800
 Alpha virt. eigenvalues --    2.58248   2.58649   2.59426   2.59630   2.61259
 Alpha virt. eigenvalues --    2.61505   2.61728   2.62761   2.64051   2.64801
 Alpha virt. eigenvalues --    2.65206   2.65575   2.66433   2.66864   2.67312
 Alpha virt. eigenvalues --    2.67631   2.67771   2.67967   2.68117   2.68409
 Alpha virt. eigenvalues --    2.68527   2.68592   2.68765   2.68959   2.69328
 Alpha virt. eigenvalues --    2.70081   2.70616   2.70706   2.70883   2.71361
 Alpha virt. eigenvalues --    2.71367   2.71695   2.71936   2.72234   2.72287
 Alpha virt. eigenvalues --    2.72790   2.73081   2.73225   2.73602   2.73682
 Alpha virt. eigenvalues --    2.73967   2.74228   2.74409   2.74970   2.75017
 Alpha virt. eigenvalues --    2.75429   2.75710   2.75993   2.76110   2.76424
 Alpha virt. eigenvalues --    2.76728   2.77359   2.77492   2.78214   2.78771
 Alpha virt. eigenvalues --    2.79918   2.80044   2.80120   2.80229   2.80359
 Alpha virt. eigenvalues --    2.80594   2.80906   2.80961   2.81090   2.81289
 Alpha virt. eigenvalues --    2.81483   2.82124   2.82502   2.83739   2.84269
 Alpha virt. eigenvalues --    2.84884   2.84937   2.85652   2.85939   2.86183
 Alpha virt. eigenvalues --    2.86338   2.87915   2.88548   2.88999   2.89969
 Alpha virt. eigenvalues --    2.90233   2.90342   2.90361   2.90461   2.91524
 Alpha virt. eigenvalues --    2.91591   2.92435   2.92580   2.92725   2.93686
 Alpha virt. eigenvalues --    2.93945   2.94032   2.94114   2.94217   2.94234
 Alpha virt. eigenvalues --    2.94565   2.94754   2.95188   2.95481   2.95873
 Alpha virt. eigenvalues --    2.96352   2.96404   2.96601   2.97042   2.97556
 Alpha virt. eigenvalues --    2.97916   2.98508   2.98838   2.99773   3.00344
 Alpha virt. eigenvalues --    3.01582   3.01748   3.01798   3.03060   3.03091
 Alpha virt. eigenvalues --    3.04390   3.04710   3.05589   3.05855   3.06040
 Alpha virt. eigenvalues --    3.06312   3.06618   3.07219   3.07419   3.09441
 Alpha virt. eigenvalues --    3.09846   3.10237   3.10767   3.11181   3.11486
 Alpha virt. eigenvalues --    3.11665   3.13322   3.15993   3.19525   3.20071
 Alpha virt. eigenvalues --    3.20247   3.20615   3.21779   3.21930   3.21984
 Alpha virt. eigenvalues --    3.22322   3.28831   3.28925   3.29776   3.30071
 Alpha virt. eigenvalues --    3.32929   3.33355   3.34092   3.37048   3.37118
 Alpha virt. eigenvalues --    3.37178   3.37335   3.37498   3.37664   3.42038
 Alpha virt. eigenvalues --    3.42598   3.44535   3.49339   3.49448   3.49486
 Alpha virt. eigenvalues --    3.49707   3.51797   3.58609   3.58626   3.58834
 Alpha virt. eigenvalues --    3.60903   3.61048   3.64699   3.65162   3.65756
 Alpha virt. eigenvalues --    3.73649   3.77107   4.13376   4.13578   4.13679
 Alpha virt. eigenvalues --    4.14338   4.15158   4.15203   4.16343   4.16417
 Alpha virt. eigenvalues --    4.16866   4.18856   4.19318   4.19896   4.20982
 Alpha virt. eigenvalues --    4.21391   4.22242   4.22778   4.23439   4.23775
 Alpha virt. eigenvalues --    4.24369   4.24645   4.25653   4.26337   4.27677
 Alpha virt. eigenvalues --    4.28784   4.29723   4.30040   4.30633   4.31018
 Alpha virt. eigenvalues --    4.31363   4.31742   4.33152   4.34364   4.35318
 Alpha virt. eigenvalues --    4.35779   4.36518   4.37260   4.38394   4.39033
 Alpha virt. eigenvalues --    4.40192   4.40956   4.41832   4.42077   4.43182
 Alpha virt. eigenvalues --    4.44707   4.45159   4.45915   4.47230   4.48863
 Alpha virt. eigenvalues --    4.49272   4.49986   4.50991   4.51309   4.51537
 Alpha virt. eigenvalues --    4.52752   4.57067   4.57573   4.58350   4.60930
 Alpha virt. eigenvalues --    4.61298   4.61821   4.64537   4.67172   4.68033
 Alpha virt. eigenvalues --    4.68646   4.69628   4.71603   4.75925   4.76151
 Alpha virt. eigenvalues --    4.76431   4.77133   4.77613   4.83643   4.89502
 Alpha virt. eigenvalues --    4.91137   4.91832   4.92480   4.92985   4.93131
 Alpha virt. eigenvalues --    4.93577   5.02972   5.03121   5.03231   5.03536
 Alpha virt. eigenvalues --    5.04075   5.23977   5.24139   5.24193   5.24542
 Alpha virt. eigenvalues --    5.40240   5.40529   5.40877
          Condensed to atoms (all electrons):
 Mulliken charges:
               1
     1  C   -0.178150
     2  C   -0.178565
     3  C   -0.207308
     4  C    0.032659
     5  C   -0.208420
     6  C    0.028753
     7  C    0.441952
     8  N   -0.556800
     9  H    0.194782
    10  H    0.194650
    11  H    0.206404
    12  H    0.206516
    13  C    0.436636
    14  N   -0.505488
    15  C   -0.178042
    16  C   -0.178827
    17  C   -0.207592
    18  C    0.030166
    19  C   -0.207737
    20  C    0.029491
    21  C    0.438461
    22  N   -0.558802
    23  H    0.194795
    24  H    0.194854
    25  H    0.206544
    26  H    0.206560
    27  B    0.549218
    28  C    0.440289
    29  N   -0.507246
    30  C   -0.180072
    31  C   -0.178365
    32  C   -0.208167
    33  C    0.032035
    34  C   -0.209369
    35  C    0.029890
    36  C    0.439123
    37  N   -0.559357
    38  H    0.194639
    39  H    0.194451
    40  H    0.206007
    41  H    0.206470
    42  C    0.441659
    43  N   -0.505129
    44  Cl  -0.238731
    45  C   -0.000974
    46  C   -0.004106
    47  C   -0.002271
    48  C   -0.000791
    49  C   -0.000946
    50  C   -0.000654
    51  C   -0.000795
    52  C   -0.000739
    53  C   -0.000615
    54  C   -0.003746
    55  C   -0.001731
    56  C   -0.006250
    57  C    0.009085
    58  C    0.016867
    59  C    0.001996
    60  C   -0.004747
    61  C   -0.004248
    62  C    0.001873
    63  C   -0.001842
    64  C   -0.012561
    65  C   -0.015942
    66  C    0.014030
    67  C    0.013070
    68  C   -0.005005
    69  C   -0.001815
    70  C   -0.001068
    71  C   -0.000634
    72  C   -0.000832
    73  C   -0.000462
    74  C   -0.000431
    75  C   -0.000381
    76  C   -0.000513
    77  C   -0.000639
    78  C   -0.000899
    79  C   -0.001473
    80  C   -0.002225
    81  C   -0.003581
    82  C   -0.005616
    83  C    0.009780
    84  C    0.018540
    85  C    0.017830
    86  C   -0.011295
    87  C   -0.001560
    88  C   -0.001256
    89  C   -0.001120
    90  C   -0.001260
    91  C   -0.001213
    92  C   -0.010458
    93  C   -0.001966
    94  C   -0.000942
    95  C   -0.001055
    96  C   -0.001254
    97  C   -0.000931
    98  C   -0.000512
    99  C   -0.000689
   100  C   -0.000640
   101  C   -0.001286
   102  C   -0.000704
   103  C   -0.000504
   104  C   -0.000733
 Sum of Mulliken charges =   0.00000
 Mulliken charges with hydrogens summed into heavy atoms:
               1
     1  C    0.016632
     2  C    0.016085
     3  C   -0.000904
     4  C    0.032659
     5  C   -0.001904
     6  C    0.028753
     7  C    0.441952
     8  N   -0.556800
    13  C    0.436636
    14  N   -0.505488
    15  C    0.016753
    16  C    0.016027
    17  C   -0.001048
    18  C    0.030166
    19  C   -0.001177
    20  C    0.029491
    21  C    0.438461
    22  N   -0.558802
    27  B    0.549218
    28  C    0.440289
    29  N   -0.507246
    30  C    0.014567
    31  C    0.016086
    32  C   -0.002160
    33  C    0.032035
    34  C   -0.002899
    35  C    0.029890
    36  C    0.439123
    37  N   -0.559357
    42  C    0.441659
    43  N   -0.505129
    44  Cl  -0.238731
    45  C   -0.000974
    46  C   -0.004106
    47  C   -0.002271
    48  C   -0.000791
    49  C   -0.000946
    50  C   -0.000654
    51  C   -0.000795
    52  C   -0.000739
    53  C   -0.000615
    54  C   -0.003746
    55  C   -0.001731
    56  C   -0.006250
    57  C    0.009085
    58  C    0.016867
    59  C    0.001996
    60  C   -0.004747
    61  C   -0.004248
    62  C    0.001873
    63  C   -0.001842
    64  C   -0.012561
    65  C   -0.015942
    66  C    0.014030
    67  C    0.013070
    68  C   -0.005005
    69  C   -0.001815
    70  C   -0.001068
    71  C   -0.000634
    72  C   -0.000832
    73  C   -0.000462
    74  C   -0.000431
    75  C   -0.000381
    76  C   -0.000513
    77  C   -0.000639
    78  C   -0.000899
    79  C   -0.001473
    80  C   -0.002225
    81  C   -0.003581
    82  C   -0.005616
    83  C    0.009780
    84  C    0.018540
    85  C    0.017830
    86  C   -0.011295
    87  C   -0.001560
    88  C   -0.001256
    89  C   -0.001120
    90  C   -0.001260
    91  C   -0.001213
    92  C   -0.010458
    93  C   -0.001966
    94  C   -0.000942
    95  C   -0.001055
    96  C   -0.001254
    97  C   -0.000931
    98  C   -0.000512
    99  C   -0.000689
   100  C   -0.000640
   101  C   -0.001286
   102  C   -0.000704
   103  C   -0.000504
   104  C   -0.000733
 Electronic spatial extent (au):  <R**2>=          46119.5134
 Charge=              0.0000 electrons
 Dipole moment (field-independent basis, Debye):
    X=              5.3386    Y=              0.0401    Z=             -0.0004  Tot=              5.3387
 Quadrupole moment (field-independent basis, Debye-Ang):
   XX=           -568.8844   YY=           -479.0741   ZZ=           -479.5284
   XY=             -0.6338   XZ=             -0.0996   YZ=              0.1199
 Traceless Quadrupole moment (field-independent basis, Debye-Ang):
   XX=            -59.7221   YY=             30.0882   ZZ=             29.6339
   XY=             -0.6338   XZ=             -0.0996   YZ=              0.1199
 Octapole moment (field-independent basis, Debye-Ang**2):
  XXX=            247.7208  YYY=             56.4895  ZZZ=              3.6558  XYY=            -92.0057
  XXY=              2.3529  XXZ=              1.2334  XZZ=            -87.5726  YZZ=            -53.6237
  YYZ=             -4.7811  XYZ=             -0.2111
 Hexadecapole moment (field-independent basis, Debye-Ang**3):
 XXXX=         -38310.8853 YYYY=         -14837.8449 ZZZZ=         -14831.7198 XXXY=            -10.6420
 XXXZ=             -4.8722 YYYX=            -43.2634 YYYZ=              1.7379 ZZZX=             -3.2528
 ZZZY=              1.2502 XXYY=          -8646.1071 XXZZ=          -8648.3536 YYZZ=          -4945.3794
 XXYZ=              1.0775 YYXZ=              1.1078 ZZXY=             20.1586
 N-N= 1.752041500718D+04 E-N=-4.438208839282D+04  KE= 3.987730971447D+03
 Leave Link  601 at Thu Aug  2 12:07:23 2018, MaxMem=   536870912 cpu:        33.0
 (Enter /local/isv/Gaussian/09_D01.PG/g09/l9999.exe)
 1\1\GINC-DMP7P-09\SP\RwB97XD TD-FC\6-31G(d)\C84H12B1Cl1N6\E1667\02-Aug
 -2018\0\\#p wb97xd/6-31g* TD=(singlets,root=1,nstates=10) SCRF=(PCM,re
 ad)units=(ang,deg)\\SubPc-C60\\0,1\C,0,2.274508,3.377063,-4.125801\C,0
 ,2.263053,2.176926,-4.857772\C,0,2.862802,1.0284,-4.364501\C,0,3.49911
 5,1.10211,-3.126404\C,0,2.88296,3.455724,-2.882831\C,0,3.508892,2.3127
 01,-2.38637\C,0,4.084811,0.076619,-2.279894\N,0,4.526754,0.727402,-1.1
 6738\H,0,1.785971,4.253872,-4.539092\H,0,1.764636,2.148866,-5.821605\H
 ,0,2.832007,0.091627,-4.910642\H,0,2.867978,4.371314,-2.301162\C,0,4.0
 94484,2.017803,-1.089182\N,0,3.961881,2.665579,0.070485\C,0,2.37141,-5
 .28163,-0.85146\C,0,2.37928,-5.322023,0.553886\C,0,2.960177,-4.307426,
 1.298559\C,0,3.56129,-3.252658,0.613032\C,0,2.944894,-4.226267,-1.5433
 15\C,0,3.553956,-3.212454,-0.805311\C,0,4.123471,-1.994237,1.075231\N,
 0,4.543935,-1.346366,-0.047835\H,0,1.895073,-6.087256,-1.401311\H,0,1.
 909632,-6.158443,1.061923\H,0,2.941882,-4.318032,2.383175\H,0,2.914117
 ,-4.173662,-2.626437\B,0,5.1408,0.017002,-0.012185\C,0,4.111764,-1.929
 946,-1.201203\N,0,3.95847,-1.25098,-2.339371\C,0,2.310268,1.891396,4.9
 77009\C,0,2.317412,3.133315,4.316477\C,0,2.919605,3.285852,3.077934\C,
 0,3.541645,2.174173,2.510303\C,0,2.910472,0.775822,4.415263\C,0,3.5398
 29,0.923162,3.179374\C,0,4.107319,1.952956,1.189853\N,0,4.538028,0.659
 633,1.187425\H,0,1.815817,1.80578,5.939523\H,0,1.828734,3.983267,4.782
 403\H,0,2.898251,4.233292,2.550088\H,0,2.88364,-0.191304,4.905881\C,0,
 4.113578,-0.052976,2.268586\N,0,3.985222,-1.381555,2.252456\Cl,0,6.997
 849,0.028252,-0.021038\C,0,-3.040435,2.414302,2.462691\C,0,-1.602499,2
 .559042,2.348738\C,0,-1.317712,3.225126,1.092498\C,0,-2.579125,3.4916,
 0.430081\C,0,-3.643551,2.99073,1.277009\C,0,-4.759588,2.397094,0.7083\
 C,0,-4.861924,2.276173,-0.732561\C,0,-3.84388,2.754375,-1.542479\C,0,-
 2.677201,3.376098,-0.948296\C,0,-1.518203,2.989521,-1.728605\C,0,-0.31
 3102,2.731881,-1.094866\C,0,-0.21014,2.853292,0.346386\C,0,0.657833,1.
 79623,0.82168\C,0,0.383438,1.159137,2.018985\C,0,-0.767874,1.550192,2.
 803519\C,0,-1.330611,0.352511,3.395754\C,0,-0.519763,-0.775955,2.98162
 9\C,0,0.540281,-0.275164,2.130591\C,0,0.958524,-1.012891,1.036171\C,0,
 1.246951,-0.348285,-0.21861\C,0,1.093666,1.02452,-0.322668\C,0,0.49261
 3,1.601471,-1.506735\C,0,0.06589,0.780129,-2.535968\C,0,-1.193882,1.04
 8251,-3.199179\C,0,-1.968797,2.128027,-2.804771\C,0,-3.406425,1.982747
 ,-2.689277\C,0,-4.006731,0.766313,-2.975093\C,0,-5.071419,0.266035,-2.
 127753\C,0,-5.489384,1.004077,-1.03163\C,0,-5.77419,0.338419,0.223871\
 C,0,-5.628259,-1.035967,0.32864\C,0,-5.190843,-1.808081,-0.817554\C,0,
 -4.918856,-1.171548,-2.018268\C,0,-3.759825,-1.559376,-2.7977\C,0,-3.1
 96179,-0.361836,-3.388879\C,0,-1.821102,-0.224008,-3.49785\C,0,-0.9463
 42,-1.277726,-3.021547\C,0,0.220748,-0.656816,-2.427423\C,0,0.794525,-
 1.208471,-1.294193\C,0,0.230997,-2.404597,-0.703153\C,0,0.333082,-2.28
 4172,0.736882\C,0,-0.681738,-2.764824,1.548305\C,0,-1.119309,-1.992349
 ,2.694862\C,0,-2.557217,-2.136201,2.808958\C,0,-3.007702,-2.996679,1.7
 32425\C,0,-1.848275,-3.385123,0.953525\C,0,-1.946512,-3.500722,-0.4248
 56\C,0,-0.882607,-3.000787,-1.272359\C,0,-1.485845,-2.423243,-2.457141
 \C,0,-2.923809,-2.566667,-2.342148\C,0,-3.208288,-3.232523,-1.08612\C,
 0,-4.316989,-2.862084,-0.341024\C,0,-4.214166,-2.741082,1.099862\C,0,-
 5.024586,-1.61255,1.513507\C,0,-4.593829,-0.789569,2.542064\C,0,-3.332
 409,-1.057029,3.204354\C,0,-2.70555,0.21494,3.504618\C,0,-3.579668,1.2
 68809,3.027241\C,0,-4.746595,0.647874,2.432401\C,0,-5.323472,1.199572,
 1.299254\\Version=ES64L-G09RevD.01\State=1-A\HF=-4020.5797792\RMSD=9.4
 71e-09\PG=C01 [X(C84H12B1Cl1N6)]\\@


 THE ONLY TROUBLE WITH A SURE THING IS THE UNCERTAINTY.
     -- FROM A TEABAG (BELONGING TO W.H.?)
 Job cpu time:       1 days 12 hours 40 minutes 27.2 seconds.
 File lengths (MBytes):  RWF=   6303 Int=      0 D2E=      0 Chk=    736 Scr=      1
 Normal termination of Gaussian 09 at Thu Aug  2 12:07:27 2018.
