 Entering Gaussian System, Link 0=g09
 Input=SubPc-C60_opt.gjf
 Output=SubPc-C60_opt.log
 Initial command:
 /local/isv/Gaussian/09_D01.PG/g09/l1.exe "/tmp/e1667/191907.cae-pbs2-01/Gau-22380.inp" -scrdir="/tmp/e1667/191907.cae-pbs2-01/"
 Entering Link 1 = /local/isv/Gaussian/09_D01.PG/g09/l1.exe PID=     22381.
  
 Copyright (c) 1988,1990,1992,1993,1995,1998,2003,2009,2013,
            Gaussian, Inc.  All Rights Reserved.
  
 This is part of the Gaussian(R) 09 program.  It is based on
 the Gaussian(R) 03 system (copyright 2003, Gaussian, Inc.),
 the Gaussian(R) 98 system (copyright 1998, Gaussian, Inc.),
 the Gaussian(R) 94 system (copyright 1995, Gaussian, Inc.),
 the Gaussian 92(TM) system (copyright 1992, Gaussian, Inc.),
 the Gaussian 90(TM) system (copyright 1990, Gaussian, Inc.),
 the Gaussian 88(TM) system (copyright 1988, Gaussian, Inc.),
 the Gaussian 86(TM) system (copyright 1986, Carnegie Mellon
 University), and the Gaussian 82(TM) system (copyright 1983,
 Carnegie Mellon University). Gaussian is a federally registered
 trademark of Gaussian, Inc.
  
 This software contains proprietary and confidential information,
 including trade secrets, belonging to Gaussian, Inc.
  
 This software is provided under written license and may be
 used, copied, transmitted, or stored only in accord with that
 written license.
  
 The following legend is applicable only to US Government
 contracts under FAR:
  
                    RESTRICTED RIGHTS LEGEND
  
 Use, reproduction and disclosure by the US Government is
 subject to restrictions as set forth in subparagraphs (a)
 and (c) of the Commercial Computer Software - Restricted
 Rights clause in FAR 52.227-19.
  
 Gaussian, Inc.
 340 Quinnipiac St., Bldg. 40, Wallingford CT 06492
  
  
 ---------------------------------------------------------------
 Warning -- This program may not be used in any manner that
 competes with the business of Gaussian, Inc. or will provide
 assistance to any competitor of Gaussian, Inc.  The licensee
 of this program is prohibited from giving any competitor of
 Gaussian, Inc. access to this program.  By using this program,
 the user acknowledges that Gaussian, Inc. is engaged in the
 business of creating and licensing software in the field of
 computational chemistry and represents and warrants to the
 licensee that it is not a competitor of Gaussian, Inc. and that
 it will not use this program in any manner prohibited above.
 ---------------------------------------------------------------
  

 Cite this work as:
 Gaussian 09, Revision D.01,
 M. J. Frisch, G. W. Trucks, H. B. Schlegel, G. E. Scuseria, 
 M. A. Robb, J. R. Cheeseman, G. Scalmani, V. Barone, B. Mennucci, 
 G. A. Petersson, H. Nakatsuji, M. Caricato, X. Li, H. P. Hratchian, 
 A. F. Izmaylov, J. Bloino, G. Zheng, J. L. Sonnenberg, M. Hada, 
 M. Ehara, K. Toyota, R. Fukuda, J. Hasegawa, M. Ishida, T. Nakajima, 
 Y. Honda, O. Kitao, H. Nakai, T. Vreven, J. A. Montgomery, Jr., 
 J. E. Peralta, F. Ogliaro, M. Bearpark, J. J. Heyd, E. Brothers, 
 K. N. Kudin, V. N. Staroverov, T. Keith, R. Kobayashi, J. Normand, 
 K. Raghavachari, A. Rendell, J. C. Burant, S. S. Iyengar, J. Tomasi, 
 M. Cossi, N. Rega, J. M. Millam, M. Klene, J. E. Knox, J. B. Cross, 
 V. Bakken, C. Adamo, J. Jaramillo, R. Gomperts, R. E. Stratmann, 
 O. Yazyev, A. J. Austin, R. Cammi, C. Pomelli, J. W. Ochterski, 
 R. L. Martin, K. Morokuma, V. G. Zakrzewski, G. A. Voth, 
 P. Salvador, J. J. Dannenberg, S. Dapprich, A. D. Daniels, 
 O. Farkas, J. B. Foresman, J. V. Ortiz, J. Cioslowski, 
 and D. J. Fox, Gaussian, Inc., Wallingford CT, 2013.
 
 ******************************************
 Gaussian 09:  ES64L-G09RevD.01 24-Apr-2013
                 2-Aug-2018 
 ******************************************
 %nprocshared=16
 Will use up to   16 processors via shared memory.
 %mem=4096MB
 %chk=SubPc-C60_tddft.chk
 -----------------------------------------------------------------
 #p LC-wPBE/6-31g* TD=(singlets,root=1,nstates=10) units=(ang,deg)
 -----------------------------------------------------------------
 1/38=1/1;
 2/12=2,17=6,18=5,40=1/2;
 3/5=1,6=6,7=1,11=9,16=1,25=1,30=1,74=-41/1,2,8,3;
 4//1;
 5/5=2,38=5/2;
 8/6=1,10=2,107=1,108=10/1;
 9/8=1,41=10,42=1,48=1,70=2/14;
 6/7=2,8=2,9=2,10=2/1;
 99/5=1,9=1/99;
 Leave Link    1 at Thu Aug  2 11:47:03 2018, MaxMem=   536870912 cpu:         0.4
 (Enter /local/isv/Gaussian/09_D01.PG/g09/l101.exe)
 ---------
 SubPc-C60
 ---------
 Symbolic Z-matrix:
 Charge =  0 Multiplicity = 1
 C                     2.27451   3.37706  -4.1258 
 C                     2.26305   2.17693  -4.85777 
 C                     2.8628    1.0284   -4.3645 
 C                     3.49912   1.10211  -3.1264 
 C                     2.88296   3.45572  -2.88283 
 C                     3.50889   2.3127   -2.38637 
 C                     4.08481   0.07662  -2.27989 
 N                     4.52675   0.7274   -1.16738 
 H                     1.78597   4.25387  -4.53909 
 H                     1.76464   2.14887  -5.82161 
 H                     2.83201   0.09163  -4.91064 
 H                     2.86798   4.37131  -2.30116 
 C                     4.09448   2.0178   -1.08918 
 N                     3.96188   2.66558   0.07049 
 C                     2.37141  -5.28163  -0.85146 
 C                     2.37928  -5.32202   0.55389 
 C                     2.96018  -4.30743   1.29856 
 C                     3.56129  -3.25266   0.61303 
 C                     2.94489  -4.22627  -1.54332 
 C                     3.55396  -3.21245  -0.80531 
 C                     4.12347  -1.99424   1.07523 
 N                     4.54394  -1.34637  -0.04784 
 H                     1.89507  -6.08726  -1.40131 
 H                     1.90963  -6.15844   1.06192 
 H                     2.94188  -4.31803   2.38318 
 H                     2.91412  -4.17366  -2.62644 
 B                     5.1408    0.017    -0.01219 
 C                     4.11176  -1.92995  -1.2012 
 N                     3.95847  -1.25098  -2.33937 
 C                     2.31027   1.8914    4.97701 
 C                     2.31741   3.13332   4.31648 
 C                     2.91961   3.28585   3.07793 
 C                     3.54165   2.17417   2.5103 
 C                     2.91047   0.77582   4.41526 
 C                     3.53983   0.92316   3.17937 
 C                     4.10732   1.95296   1.18985 
 N                     4.53803   0.65963   1.18743 
 H                     1.81582   1.80578   5.93952 
 H                     1.82873   3.98327   4.7824 
 H                     2.89825   4.23329   2.55009 
 H                     2.88364  -0.1913    4.90588 
 C                     4.11358  -0.05298   2.26859 
 N                     3.98522  -1.38156   2.25246 
 Cl                    6.99785   0.02825  -0.02104 
 C                    -3.04043   2.4143    2.46269 
 C                    -1.6025    2.55904   2.34874 
 C                    -1.31771   3.22513   1.0925 
 C                    -2.57913   3.4916    0.43008 
 C                    -3.64355   2.99073   1.27701 
 C                    -4.75959   2.39709   0.7083 
 C                    -4.86192   2.27617  -0.73256 
 C                    -3.84388   2.75438  -1.54248 
 C                    -2.6772    3.3761   -0.9483 
 C                    -1.5182    2.98952  -1.72861 
 C                    -0.3131    2.73188  -1.09487 
 C                    -0.21014   2.85329   0.34639 
 C                     0.65783   1.79623   0.82168 
 C                     0.38344   1.15914   2.01898 
 C                    -0.76787   1.55019   2.80352 
 C                    -1.33061   0.35251   3.39575 
 C                    -0.51976  -0.77596   2.98163 
 C                     0.54028  -0.27516   2.13059 
 C                     0.95852  -1.01289   1.03617 
 C                     1.24695  -0.34829  -0.21861 
 C                     1.09367   1.02452  -0.32267 
 C                     0.49261   1.60147  -1.50674 
 C                     0.06589   0.78013  -2.53597 
 C                    -1.19388   1.04825  -3.19918 
 C                    -1.9688    2.12803  -2.80477 
 C                    -3.40643   1.98275  -2.68928 
 C                    -4.00673   0.76631  -2.97509 
 C                    -5.07142   0.26604  -2.12775 
 C                    -5.48938   1.00408  -1.03163 
 C                    -5.77419   0.33842   0.22387 
 C                    -5.62826  -1.03597   0.32864 
 C                    -5.19084  -1.80808  -0.81755 
 C                    -4.91886  -1.17155  -2.01827 
 C                    -3.75983  -1.55938  -2.7977 
 C                    -3.19618  -0.36184  -3.38888 
 C                    -1.8211   -0.22401  -3.49785 
 C                    -0.94634  -1.27773  -3.02155 
 C                     0.22075  -0.65682  -2.42742 
 C                     0.79453  -1.20847  -1.29419 
 C                     0.231    -2.4046   -0.70315 
 C                     0.33308  -2.28417   0.73688 
 C                    -0.68174  -2.76482   1.54831 
 C                    -1.11931  -1.99235   2.69486 
 C                    -2.55722  -2.1362    2.80896 
 C                    -3.0077   -2.99668   1.73243 
 C                    -1.84828  -3.38512   0.95353 
 C                    -1.94651  -3.50072  -0.42486 
 C                    -0.88261  -3.00079  -1.27236 
 C                    -1.48585  -2.42324  -2.45714 
 C                    -2.92381  -2.56667  -2.34215 
 C                    -3.20829  -3.23252  -1.08612 
 C                    -4.31699  -2.86208  -0.34102 
 C                    -4.21417  -2.74108   1.09986 
 C                    -5.02459  -1.61255   1.51351 
 C                    -4.59383  -0.78957   2.54206 
 C                    -3.33241  -1.05703   3.20435 
 C                    -2.70555   0.21494   3.50462 
 C                    -3.57967   1.26881   3.02724 
 C                    -4.7466    0.64787   2.4324 
 C                    -5.32347   1.19957   1.29925 
 
 NAtoms=    104 NQM=      104 NQMF=       0 NMMI=      0 NMMIF=      0
                NMic=       0 NMicF=      0.
                    Isotopes and Nuclear Properties:
 (Nuclear quadrupole moments (NQMom) in fm**2, nuclear magnetic moments (NMagM)
  in nuclear magnetons)

  Atom         1           2           3           4           5           6           7           8           9          10
 IAtWgt=          12          12          12          12          12          12          12          14           1           1
 AtmWgt=  12.0000000  12.0000000  12.0000000  12.0000000  12.0000000  12.0000000  12.0000000  14.0030740   1.0078250   1.0078250
 NucSpn=           0           0           0           0           0           0           0           2           1           1
 AtZEff=   0.0000000   0.0000000   0.0000000   0.0000000   0.0000000   0.0000000   0.0000000   0.0000000   0.0000000   0.0000000
 NQMom=    0.0000000   0.0000000   0.0000000   0.0000000   0.0000000   0.0000000   0.0000000   2.0440000   0.0000000   0.0000000
 NMagM=    0.0000000   0.0000000   0.0000000   0.0000000   0.0000000   0.0000000   0.0000000   0.4037610   2.7928460   2.7928460
 AtZNuc=   6.0000000   6.0000000   6.0000000   6.0000000   6.0000000   6.0000000   6.0000000   7.0000000   1.0000000   1.0000000

  Atom        11          12          13          14          15          16          17          18          19          20
 IAtWgt=           1           1          12          14          12          12          12          12          12          12
 AtmWgt=   1.0078250   1.0078250  12.0000000  14.0030740  12.0000000  12.0000000  12.0000000  12.0000000  12.0000000  12.0000000
 NucSpn=           1           1           0           2           0           0           0           0           0           0
 AtZEff=   0.0000000   0.0000000   0.0000000   0.0000000   0.0000000   0.0000000   0.0000000   0.0000000   0.0000000   0.0000000
 NQMom=    0.0000000   0.0000000   0.0000000   2.0440000   0.0000000   0.0000000   0.0000000   0.0000000   0.0000000   0.0000000
 NMagM=    2.7928460   2.7928460   0.0000000   0.4037610   0.0000000   0.0000000   0.0000000   0.0000000   0.0000000   0.0000000
 AtZNuc=   1.0000000   1.0000000   6.0000000   7.0000000   6.0000000   6.0000000   6.0000000   6.0000000   6.0000000   6.0000000

  Atom        21          22          23          24          25          26          27          28          29          30
 IAtWgt=          12          14           1           1           1           1          11          12          14          12
 AtmWgt=  12.0000000  14.0030740   1.0078250   1.0078250   1.0078250   1.0078250  11.0093053  12.0000000  14.0030740  12.0000000
 NucSpn=           0           2           1           1           1           1           3           0           2           0
 AtZEff=   0.0000000   0.0000000   0.0000000   0.0000000   0.0000000   0.0000000   0.0000000   0.0000000   0.0000000   0.0000000
 NQMom=    0.0000000   2.0440000   0.0000000   0.0000000   0.0000000   0.0000000   4.0590000   0.0000000   2.0440000   0.0000000
 NMagM=    0.0000000   0.4037610   2.7928460   2.7928460   2.7928460   2.7928460   2.6886370   0.0000000   0.4037610   0.0000000
 AtZNuc=   6.0000000   7.0000000   1.0000000   1.0000000   1.0000000   1.0000000   5.0000000   6.0000000   7.0000000   6.0000000

  Atom        31          32          33          34          35          36          37          38          39          40
 IAtWgt=          12          12          12          12          12          12          14           1           1           1
 AtmWgt=  12.0000000  12.0000000  12.0000000  12.0000000  12.0000000  12.0000000  14.0030740   1.0078250   1.0078250   1.0078250
 NucSpn=           0           0           0           0           0           0           2           1           1           1
 AtZEff=   0.0000000   0.0000000   0.0000000   0.0000000   0.0000000   0.0000000   0.0000000   0.0000000   0.0000000   0.0000000
 NQMom=    0.0000000   0.0000000   0.0000000   0.0000000   0.0000000   0.0000000   2.0440000   0.0000000   0.0000000   0.0000000
 NMagM=    0.0000000   0.0000000   0.0000000   0.0000000   0.0000000   0.0000000   0.4037610   2.7928460   2.7928460   2.7928460
 AtZNuc=   6.0000000   6.0000000   6.0000000   6.0000000   6.0000000   6.0000000   7.0000000   1.0000000   1.0000000   1.0000000

  Atom        41          42          43          44          45          46          47          48          49          50
 IAtWgt=           1          12          14          35          12          12          12          12          12          12
 AtmWgt=   1.0078250  12.0000000  14.0030740  34.9688527  12.0000000  12.0000000  12.0000000  12.0000000  12.0000000  12.0000000
 NucSpn=           1           0           2           3           0           0           0           0           0           0
 AtZEff=   0.0000000   0.0000000   0.0000000   0.0000000   0.0000000   0.0000000   0.0000000   0.0000000   0.0000000   0.0000000
 NQMom=    0.0000000   0.0000000   2.0440000  -8.1650000   0.0000000   0.0000000   0.0000000   0.0000000   0.0000000   0.0000000
 NMagM=    2.7928460   0.0000000   0.4037610   0.8218740   0.0000000   0.0000000   0.0000000   0.0000000   0.0000000   0.0000000
 AtZNuc=   1.0000000   6.0000000   7.0000000  17.0000000   6.0000000   6.0000000   6.0000000   6.0000000   6.0000000   6.0000000

  Atom        51          52          53          54          55          56          57          58          59          60
 IAtWgt=          12          12          12          12          12          12          12          12          12          12
 AtmWgt=  12.0000000  12.0000000  12.0000000  12.0000000  12.0000000  12.0000000  12.0000000  12.0000000  12.0000000  12.0000000
 NucSpn=           0           0           0           0           0           0           0           0           0           0
 AtZEff=   0.0000000   0.0000000   0.0000000   0.0000000   0.0000000   0.0000000   0.0000000   0.0000000   0.0000000   0.0000000
 NQMom=    0.0000000   0.0000000   0.0000000   0.0000000   0.0000000   0.0000000   0.0000000   0.0000000   0.0000000   0.0000000
 NMagM=    0.0000000   0.0000000   0.0000000   0.0000000   0.0000000   0.0000000   0.0000000   0.0000000   0.0000000   0.0000000
 AtZNuc=   6.0000000   6.0000000   6.0000000   6.0000000   6.0000000   6.0000000   6.0000000   6.0000000   6.0000000   6.0000000

  Atom        61          62          63          64          65          66          67          68          69          70
 IAtWgt=          12          12          12          12          12          12          12          12          12          12
 AtmWgt=  12.0000000  12.0000000  12.0000000  12.0000000  12.0000000  12.0000000  12.0000000  12.0000000  12.0000000  12.0000000
 NucSpn=           0           0           0           0           0           0           0           0           0           0
 AtZEff=   0.0000000   0.0000000   0.0000000   0.0000000   0.0000000   0.0000000   0.0000000   0.0000000   0.0000000   0.0000000
 NQMom=    0.0000000   0.0000000   0.0000000   0.0000000   0.0000000   0.0000000   0.0000000   0.0000000   0.0000000   0.0000000
 NMagM=    0.0000000   0.0000000   0.0000000   0.0000000   0.0000000   0.0000000   0.0000000   0.0000000   0.0000000   0.0000000
 AtZNuc=   6.0000000   6.0000000   6.0000000   6.0000000   6.0000000   6.0000000   6.0000000   6.0000000   6.0000000   6.0000000

  Atom        71          72          73          74          75          76          77          78          79          80
 IAtWgt=          12          12          12          12          12          12          12          12          12          12
 AtmWgt=  12.0000000  12.0000000  12.0000000  12.0000000  12.0000000  12.0000000  12.0000000  12.0000000  12.0000000  12.0000000
 NucSpn=           0           0           0           0           0           0           0           0           0           0
 AtZEff=   0.0000000   0.0000000   0.0000000   0.0000000   0.0000000   0.0000000   0.0000000   0.0000000   0.0000000   0.0000000
 NQMom=    0.0000000   0.0000000   0.0000000   0.0000000   0.0000000   0.0000000   0.0000000   0.0000000   0.0000000   0.0000000
 NMagM=    0.0000000   0.0000000   0.0000000   0.0000000   0.0000000   0.0000000   0.0000000   0.0000000   0.0000000   0.0000000
 AtZNuc=   6.0000000   6.0000000   6.0000000   6.0000000   6.0000000   6.0000000   6.0000000   6.0000000   6.0000000   6.0000000

  Atom        81          82          83          84          85          86          87          88          89          90
 IAtWgt=          12          12          12          12          12          12          12          12          12          12
 AtmWgt=  12.0000000  12.0000000  12.0000000  12.0000000  12.0000000  12.0000000  12.0000000  12.0000000  12.0000000  12.0000000
 NucSpn=           0           0           0           0           0           0           0           0           0           0
 AtZEff=   0.0000000   0.0000000   0.0000000   0.0000000   0.0000000   0.0000000   0.0000000   0.0000000   0.0000000   0.0000000
 NQMom=    0.0000000   0.0000000   0.0000000   0.0000000   0.0000000   0.0000000   0.0000000   0.0000000   0.0000000   0.0000000
 NMagM=    0.0000000   0.0000000   0.0000000   0.0000000   0.0000000   0.0000000   0.0000000   0.0000000   0.0000000   0.0000000
 AtZNuc=   6.0000000   6.0000000   6.0000000   6.0000000   6.0000000   6.0000000   6.0000000   6.0000000   6.0000000   6.0000000

  Atom        91          92          93          94          95          96          97          98          99         100
 IAtWgt=          12          12          12          12          12          12          12          12          12          12
 AtmWgt=  12.0000000  12.0000000  12.0000000  12.0000000  12.0000000  12.0000000  12.0000000  12.0000000  12.0000000  12.0000000
 NucSpn=           0           0           0           0           0           0           0           0           0           0
 AtZEff=   0.0000000   0.0000000   0.0000000   0.0000000   0.0000000   0.0000000   0.0000000   0.0000000   0.0000000   0.0000000
 NQMom=    0.0000000   0.0000000   0.0000000   0.0000000   0.0000000   0.0000000   0.0000000   0.0000000   0.0000000   0.0000000
 NMagM=    0.0000000   0.0000000   0.0000000   0.0000000   0.0000000   0.0000000   0.0000000   0.0000000   0.0000000   0.0000000
 AtZNuc=   6.0000000   6.0000000   6.0000000   6.0000000   6.0000000   6.0000000   6.0000000   6.0000000   6.0000000   6.0000000

  Atom       101         102         103         104
 IAtWgt=          12          12          12          12
 AtmWgt=  12.0000000  12.0000000  12.0000000  12.0000000
 NucSpn=           0           0           0           0
 AtZEff=   0.0000000   0.0000000   0.0000000   0.0000000
 NQMom=    0.0000000   0.0000000   0.0000000   0.0000000
 NMagM=    0.0000000   0.0000000   0.0000000   0.0000000
 AtZNuc=   6.0000000   6.0000000   6.0000000   6.0000000
 Leave Link  101 at Thu Aug  2 11:47:03 2018, MaxMem=   536870912 cpu:         1.6
 (Enter /local/isv/Gaussian/09_D01.PG/g09/l202.exe)
 Stoichiometry    C84H12BClN6
 Framework group  C1[X(C84H12BClN6)]
 Deg. of freedom   306
 Full point group                 C1      NOp   1
 Largest Abelian subgroup         C1      NOp   1
 Largest concise Abelian subgroup C1      NOp   1
                         Standard orientation:                         
 ---------------------------------------------------------------------
 Center     Atomic      Atomic             Coordinates (Angstroms)
 Number     Number       Type             X           Y           Z
 ---------------------------------------------------------------------
      1          6           0       -2.274508   -3.377063   -4.125801
      2          6           0       -2.263053   -2.176926   -4.857772
      3          6           0       -2.862802   -1.028400   -4.364501
      4          6           0       -3.499115   -1.102110   -3.126404
      5          6           0       -2.882960   -3.455724   -2.882831
      6          6           0       -3.508892   -2.312701   -2.386370
      7          6           0       -4.084811   -0.076619   -2.279894
      8          7           0       -4.526754   -0.727402   -1.167380
      9          1           0       -1.785971   -4.253872   -4.539092
     10          1           0       -1.764636   -2.148866   -5.821605
     11          1           0       -2.832007   -0.091627   -4.910642
     12          1           0       -2.867978   -4.371314   -2.301162
     13          6           0       -4.094484   -2.017803   -1.089182
     14          7           0       -3.961881   -2.665579    0.070485
     15          6           0       -2.371410    5.281630   -0.851460
     16          6           0       -2.379280    5.322023    0.553886
     17          6           0       -2.960177    4.307426    1.298559
     18          6           0       -3.561290    3.252658    0.613032
     19          6           0       -2.944894    4.226267   -1.543315
     20          6           0       -3.553956    3.212454   -0.805311
     21          6           0       -4.123471    1.994237    1.075231
     22          7           0       -4.543935    1.346366   -0.047835
     23          1           0       -1.895073    6.087256   -1.401311
     24          1           0       -1.909632    6.158443    1.061923
     25          1           0       -2.941882    4.318032    2.383175
     26          1           0       -2.914117    4.173662   -2.626437
     27          5           0       -5.140800   -0.017002   -0.012185
     28          6           0       -4.111764    1.929946   -1.201203
     29          7           0       -3.958470    1.250980   -2.339371
     30          6           0       -2.310268   -1.891396    4.977009
     31          6           0       -2.317412   -3.133315    4.316477
     32          6           0       -2.919605   -3.285852    3.077934
     33          6           0       -3.541645   -2.174173    2.510303
     34          6           0       -2.910472   -0.775822    4.415263
     35          6           0       -3.539829   -0.923162    3.179374
     36          6           0       -4.107319   -1.952956    1.189853
     37          7           0       -4.538028   -0.659633    1.187425
     38          1           0       -1.815817   -1.805780    5.939523
     39          1           0       -1.828734   -3.983267    4.782403
     40          1           0       -2.898251   -4.233292    2.550088
     41          1           0       -2.883640    0.191304    4.905881
     42          6           0       -4.113578    0.052976    2.268586
     43          7           0       -3.985222    1.381555    2.252456
     44         17           0       -6.997849   -0.028252   -0.021038
     45          6           0        3.040435   -2.414302    2.462691
     46          6           0        1.602499   -2.559042    2.348738
     47          6           0        1.317712   -3.225126    1.092498
     48          6           0        2.579125   -3.491600    0.430081
     49          6           0        3.643551   -2.990730    1.277009
     50          6           0        4.759588   -2.397094    0.708300
     51          6           0        4.861924   -2.276173   -0.732561
     52          6           0        3.843880   -2.754375   -1.542479
     53          6           0        2.677201   -3.376098   -0.948296
     54          6           0        1.518203   -2.989521   -1.728605
     55          6           0        0.313102   -2.731881   -1.094866
     56          6           0        0.210140   -2.853292    0.346386
     57          6           0       -0.657833   -1.796230    0.821680
     58          6           0       -0.383438   -1.159137    2.018985
     59          6           0        0.767874   -1.550192    2.803519
     60          6           0        1.330611   -0.352511    3.395754
     61          6           0        0.519763    0.775955    2.981629
     62          6           0       -0.540281    0.275164    2.130591
     63          6           0       -0.958524    1.012891    1.036171
     64          6           0       -1.246951    0.348285   -0.218610
     65          6           0       -1.093666   -1.024520   -0.322668
     66          6           0       -0.492613   -1.601471   -1.506735
     67          6           0       -0.065890   -0.780129   -2.535968
     68          6           0        1.193882   -1.048251   -3.199179
     69          6           0        1.968797   -2.128027   -2.804771
     70          6           0        3.406425   -1.982747   -2.689277
     71          6           0        4.006731   -0.766313   -2.975093
     72          6           0        5.071419   -0.266035   -2.127753
     73          6           0        5.489384   -1.004077   -1.031630
     74          6           0        5.774190   -0.338419    0.223871
     75          6           0        5.628259    1.035967    0.328640
     76          6           0        5.190843    1.808081   -0.817554
     77          6           0        4.918856    1.171548   -2.018268
     78          6           0        3.759825    1.559376   -2.797700
     79          6           0        3.196179    0.361836   -3.388879
     80          6           0        1.821102    0.224008   -3.497850
     81          6           0        0.946342    1.277726   -3.021547
     82          6           0       -0.220748    0.656816   -2.427423
     83          6           0       -0.794525    1.208471   -1.294193
     84          6           0       -0.230997    2.404597   -0.703153
     85          6           0       -0.333082    2.284172    0.736882
     86          6           0        0.681738    2.764824    1.548305
     87          6           0        1.119309    1.992349    2.694862
     88          6           0        2.557217    2.136201    2.808958
     89          6           0        3.007702    2.996679    1.732425
     90          6           0        1.848275    3.385123    0.953525
     91          6           0        1.946512    3.500722   -0.424856
     92          6           0        0.882607    3.000787   -1.272359
     93          6           0        1.485845    2.423243   -2.457141
     94          6           0        2.923809    2.566667   -2.342148
     95          6           0        3.208288    3.232523   -1.086120
     96          6           0        4.316989    2.862084   -0.341024
     97          6           0        4.214166    2.741082    1.099862
     98          6           0        5.024586    1.612550    1.513507
     99          6           0        4.593829    0.789569    2.542064
    100          6           0        3.332409    1.057029    3.204354
    101          6           0        2.705550   -0.214940    3.504618
    102          6           0        3.579668   -1.268809    3.027241
    103          6           0        4.746595   -0.647874    2.432401
    104          6           0        5.323472   -1.199572    1.299254
 ---------------------------------------------------------------------
 Rotational constants (GHZ):      0.0442338      0.0264580      0.0264330
 Leave Link  202 at Thu Aug  2 11:47:03 2018, MaxMem=   536870912 cpu:         0.1
 (Enter /local/isv/Gaussian/09_D01.PG/g09/l301.exe)
 Standard basis: 6-31G(d) (6D, 7F)
 Ernie: Thresh=  0.10000D-02 Tol=  0.10000D-05 Strict=F.
 There are  1408 symmetry adapted cartesian basis functions of A   symmetry.
 There are  1408 symmetry adapted basis functions of A   symmetry.
  1408 basis functions,  2648 primitive gaussians,  1408 cartesian basis functions
   290 alpha electrons      290 beta electrons
       nuclear repulsion energy     17520.6018088205 Hartrees.
 IExCor=32609 DFT=T Ex+Corr=LC-wPBE ExCW=0 ScaHFX=  1.000000
 ScaDFX=  1.000000  0.000000  1.000000  1.000000 ScalE2=  1.000000  1.000000
 IRadAn=      0 IRanWt=     -1 IRanGd=            0 ICorTp=0 IEmpDi=  4
  HFx wShort=  0.000000 wLong=  0.400000 cFull=  0.000000 cShort=  0.000000 cLong=  1.000000
  DFx wShort=  0.000000 wLong=  0.400000 cFull=  0.000000 cShort=  0.000000 cLong=  1.000000
 NAtoms=  104 NActive=  104 NUniq=  104 SFac= 1.00D+00 NAtFMM=   60 NAOKFM=T Big=T
 Integral buffers will be    131072 words long.
 Raffenetti 1 integral format.
 Two-electron integral symmetry is turned on.
 Leave Link  301 at Thu Aug  2 11:47:03 2018, MaxMem=   536870912 cpu:         0.7
 (Enter /local/isv/Gaussian/09_D01.PG/g09/l302.exe)
 NPDir=0 NMtPBC=     1 NCelOv=     1 NCel=       1 NClECP=     1 NCelD=      1
         NCelK=      1 NCelE2=     1 NClLst=     1 CellRange=     0.0.
 One-electron integrals computed using PRISM.
 NBasis=  1408 RedAO= T EigKep=  3.01D-04  NBF=  1408
 NBsUse=  1408 1.00D-06 EigRej= -1.00D+00 NBFU=  1408
 Precomputing XC quadrature grid using
 IXCGrd= 4 IRadAn=           0 IRanWt=          -1 IRanGd=           0 AccXCQ= 0.00D+00.
 Generated NRdTot=       0 NPtTot=           0 NUsed=           0 NTot=          32
 NSgBfM=  1234  1270  1270  1288  1298 MxSgAt=   104 MxSgA2=   104.
 Leave Link  302 at Thu Aug  2 11:47:08 2018, MaxMem=   536870912 cpu:        74.6
 (Enter /local/isv/Gaussian/09_D01.PG/g09/l308.exe)
 Leave Link  308 at Thu Aug  2 11:47:10 2018, MaxMem=   536870912 cpu:         5.2
 (Enter /local/isv/Gaussian/09_D01.PG/g09/l303.exe)
 DipDrv:  MaxL=1.
 Leave Link  303 at Thu Aug  2 11:47:10 2018, MaxMem=   536870912 cpu:         3.7
 (Enter /local/isv/Gaussian/09_D01.PG/g09/l401.exe)
 ExpMin= 1.27D-01 ExpMax= 2.52D+04 ExpMxC= 3.78D+03 IAcc=1 IRadAn=         1 AccDes= 0.00D+00
 Harris functional with IExCor=32609 and IRadAn=       1 diagonalized for initial guess.
 HarFok:  IExCor=32609 AccDes= 0.00D+00 IRadAn=         1 IDoV= 1 UseB2=F ITyADJ=14
 ICtDFT=  3500011 ScaDFX=  1.000000  1.000000  1.000000  1.000000
 FoFCou: FMM=F IPFlag=           0 FMFlag=      100000 FMFlg1=        2001
         NFxFlg=           0 DoJE=T BraDBF=F KetDBF=T FulRan=T
         wScrn=  0.000000 ICntrl=     500 IOpCl=  0 I1Cent=   200000004 NGrid=           0
         NMat0=    1 NMatS0=      1 NMatT0=    0 NMatD0=    1 NMtDS0=    0 NMtDT0=    0
 Petite list used in FoFCou.
 Harris En= -4018.29900251673    
 JPrj=0 DoOrth=F DoCkMO=F.
 Leave Link  401 at Thu Aug  2 11:47:16 2018, MaxMem=   536870912 cpu:        91.2
 (Enter /local/isv/Gaussian/09_D01.PG/g09/l502.exe)
 Closed shell SCF:
 Using DIIS extrapolation, IDIIS=  1040.
 Integral symmetry usage will be decided dynamically.
 IVT=     5998927 IEndB=     5998927 NGot=   536870912 MDV=   532872498
 LenX=   532872498 LenY=   530888626
 Requested convergence on RMS density matrix=1.00D-08 within 128 cycles.
 Requested convergence on MAX density matrix=1.00D-06.
 Requested convergence on             energy=1.00D-06.
 No special actions if energy rises.
 Fock matrices will be formed incrementally for  20 cycles.
 Integral accuracy reduced to 1.0D-05 until final iterations.

 Cycle   1  Pass 0  IDiag  1:
 FoFJK:  IHMeth= 1 ICntrl=       0 DoSepK=T KAlg= 0 I1Cent=   0 FoldK=F
 IRaf=         1 NMat=   1 IRICut=       1 DoRegI=T DoRafI=F ISym2E= 0.
 FoFCou: FMM=T IPFlag=           0 FMFlag=      100000 FMFlg1=        2001
         NFxFlg=           0 DoJE=T BraDBF=F KetDBF=F FulRan=T
         wScrn=  0.000000 ICntrl=     500 IOpCl=  0 I1Cent=           0 NGrid=           0
         NMat0=    1 NMatS0=      1 NMatT0=    0 NMatD0=    1 NMtDS0=    0 NMtDT0=    0
 Symmetry not used in FoFCou.
 FMM levels:  10  Number of levels for PrismC:   9
 E= -4017.89854296797    
 DIIS: error= 2.34D-02 at cycle   1 NSaved=   1.
 NSaved= 1 IEnMin= 1 EnMin= -4017.89854296797     IErMin= 1 ErrMin= 2.34D-02
 ErrMax= 2.34D-02  0.00D+00 EMaxC= 1.00D-01 BMatC= 9.62D-01 BMatP= 9.62D-01
 IDIUse=3 WtCom= 7.66D-01 WtEn= 2.34D-01
 Coeff-Com:  0.100D+01
 Coeff-En:   0.100D+01
 Coeff:      0.100D+01
 Gap=     0.265 Goal=   None    Shift=    0.000
 GapD=    0.265 DampG=1.000 DampE=0.500 DampFc=0.5000 IDamp=-1.
 Damping current iteration by 5.00D-01
 RMSDP=1.59D-03 MaxDP=9.38D-02              OVMax= 1.77D-01

 Cycle   2  Pass 0  IDiag  1:
 RMSU=  7.57D-04    CP:  9.74D-01
 E= -4018.39596829933     Delta-E=       -0.497425331363 Rises=F Damp=T
 DIIS: error= 1.02D-02 at cycle   2 NSaved=   2.
 NSaved= 2 IEnMin= 2 EnMin= -4018.39596829933     IErMin= 2 ErrMin= 1.02D-02
 ErrMax= 1.02D-02  0.00D+00 EMaxC= 1.00D-01 BMatC= 1.13D-01 BMatP= 9.62D-01
 IDIUse=3 WtCom= 8.98D-01 WtEn= 1.02D-01
 Coeff-Com: -0.222D+00 0.122D+01
 Coeff-En:   0.000D+00 0.100D+01
 Coeff:     -0.199D+00 0.120D+01
 Gap=     0.294 Goal=   None    Shift=    0.000
 RMSDP=6.28D-04 MaxDP=4.69D-02 DE=-4.97D-01 OVMax= 9.51D-02

 Cycle   3  Pass 0  IDiag  1:
 RMSU=  5.69D-04    CP:  9.62D-01  1.31D+00
 E= -4018.84774247560     Delta-E=       -0.451774176265 Rises=F Damp=F
 DIIS: error= 3.61D-03 at cycle   3 NSaved=   3.
 NSaved= 3 IEnMin= 3 EnMin= -4018.84774247560     IErMin= 3 ErrMin= 3.61D-03
 ErrMax= 3.61D-03  0.00D+00 EMaxC= 1.00D-01 BMatC= 2.27D-02 BMatP= 1.13D-01
 IDIUse=3 WtCom= 9.64D-01 WtEn= 3.61D-02
 Coeff-Com: -0.137D+00 0.404D+00 0.732D+00
 Coeff-En:   0.000D+00 0.000D+00 0.100D+01
 Coeff:     -0.132D+00 0.390D+00 0.742D+00
 Gap=     0.210 Goal=   None    Shift=    0.000
 RMSDP=2.11D-04 MaxDP=1.94D-02 DE=-4.52D-01 OVMax= 4.07D-02

 Cycle   4  Pass 0  IDiag  1:
 RMSU=  1.55D-04    CP:  9.60D-01  1.44D+00  8.11D-01
 E= -4018.86452864610     Delta-E=       -0.016786170505 Rises=F Damp=F
 DIIS: error= 1.72D-03 at cycle   4 NSaved=   4.
 NSaved= 4 IEnMin= 4 EnMin= -4018.86452864610     IErMin= 4 ErrMin= 1.72D-03
 ErrMax= 1.72D-03  0.00D+00 EMaxC= 1.00D-01 BMatC= 5.58D-03 BMatP= 2.27D-02
 IDIUse=3 WtCom= 9.83D-01 WtEn= 1.72D-02
 Coeff-Com: -0.533D-01 0.128D+00 0.386D+00 0.539D+00
 Coeff-En:   0.000D+00 0.000D+00 0.106D+00 0.894D+00
 Coeff:     -0.524D-01 0.126D+00 0.381D+00 0.545D+00
 Gap=     0.203 Goal=   None    Shift=    0.000
 RMSDP=7.63D-05 MaxDP=8.52D-03 DE=-1.68D-02 OVMax= 1.06D-02

 Cycle   5  Pass 0  IDiag  1:
 RMSU=  5.73D-05    CP:  9.60D-01  1.43D+00  8.54D-01  7.19D-01
 E= -4018.86931160948     Delta-E=       -0.004782963377 Rises=F Damp=F
 DIIS: error= 3.88D-04 at cycle   5 NSaved=   5.
 NSaved= 5 IEnMin= 5 EnMin= -4018.86931160948     IErMin= 5 ErrMin= 3.88D-04
 ErrMax= 3.88D-04  0.00D+00 EMaxC= 1.00D-01 BMatC= 3.00D-04 BMatP= 5.58D-03
 IDIUse=3 WtCom= 9.96D-01 WtEn= 3.88D-03
 Coeff-Com: -0.614D-03-0.645D-02 0.428D-01 0.193D+00 0.771D+00
 Coeff-En:   0.000D+00 0.000D+00 0.000D+00 0.000D+00 0.100D+01
 Coeff:     -0.612D-03-0.643D-02 0.426D-01 0.192D+00 0.772D+00
 Gap=     0.203 Goal=   None    Shift=    0.000
 RMSDP=2.70D-05 MaxDP=1.51D-03 DE=-4.78D-03 OVMax= 4.53D-03

 Cycle   6  Pass 0  IDiag  1:
 RMSU=  2.11D-05    CP:  9.60D-01  1.43D+00  8.72D-01  8.04D-01  9.54D-01
 E= -4018.86992023267     Delta-E=       -0.000608623192 Rises=F Damp=F
 DIIS: error= 1.81D-04 at cycle   6 NSaved=   6.
 NSaved= 6 IEnMin= 6 EnMin= -4018.86992023267     IErMin= 6 ErrMin= 1.81D-04
 ErrMax= 1.81D-04  0.00D+00 EMaxC= 1.00D-01 BMatC= 5.46D-05 BMatP= 3.00D-04
 IDIUse=3 WtCom= 9.98D-01 WtEn= 1.81D-03
 Coeff-Com:  0.533D-02-0.159D-01-0.223D-01 0.188D-01 0.308D+00 0.706D+00
 Coeff-En:   0.000D+00 0.000D+00 0.000D+00 0.000D+00 0.000D+00 0.100D+01
 Coeff:      0.532D-02-0.159D-01-0.223D-01 0.187D-01 0.308D+00 0.706D+00
 Gap=     0.203 Goal=   None    Shift=    0.000
 RMSDP=1.36D-05 MaxDP=7.19D-04 DE=-6.09D-04 OVMax= 2.33D-03

 Cycle   7  Pass 0  IDiag  1:
 RMSU=  1.18D-05    CP:  9.60D-01  1.43D+00  8.75D-01  8.15D-01  1.06D+00
                    CP:  1.03D+00
 E= -4018.87011063717     Delta-E=       -0.000190404502 Rises=F Damp=F
 DIIS: error= 1.04D-04 at cycle   7 NSaved=   7.
 NSaved= 7 IEnMin= 7 EnMin= -4018.87011063717     IErMin= 7 ErrMin= 1.04D-04
 ErrMax= 1.04D-04  0.00D+00 EMaxC= 1.00D-01 BMatC= 1.44D-05 BMatP= 5.46D-05
 IDIUse=3 WtCom= 9.99D-01 WtEn= 1.04D-03
 Coeff-Com:  0.259D-02-0.587D-02-0.205D-01-0.410D-01-0.706D-01 0.316D+00
 Coeff-Com:  0.820D+00
 Coeff-En:   0.000D+00 0.000D+00 0.000D+00 0.000D+00 0.000D+00 0.000D+00
 Coeff-En:   0.100D+01
 Coeff:      0.259D-02-0.587D-02-0.205D-01-0.410D-01-0.705D-01 0.315D+00
 Coeff:      0.820D+00
 Gap=     0.204 Goal=   None    Shift=    0.000
 RMSDP=1.41D-05 MaxDP=3.19D-04 DE=-1.90D-04 OVMax= 1.50D-03

 Cycle   8  Pass 0  IDiag  1:
 RMSU=  1.11D-05    CP:  9.60D-01  1.44D+00  8.76D-01  8.28D-01  1.09D+00
                    CP:  1.32D+00  1.45D+00
 E= -4018.87013533500     Delta-E=       -0.000024697831 Rises=F Damp=F
 DIIS: error= 4.37D-05 at cycle   8 NSaved=   8.
 NSaved= 8 IEnMin= 8 EnMin= -4018.87013533500     IErMin= 8 ErrMin= 4.37D-05
 ErrMax= 4.37D-05  0.00D+00 EMaxC= 1.00D-01 BMatC= 2.55D-06 BMatP= 1.44D-05
 IDIUse=1 WtCom= 1.00D+00 WtEn= 0.00D+00
 Coeff-Com:  0.934D-04 0.378D-03-0.354D-02-0.181D-01-0.813D-01-0.968D-04
 Coeff-Com:  0.323D+00 0.780D+00
 Coeff:      0.934D-04 0.378D-03-0.354D-02-0.181D-01-0.813D-01-0.968D-04
 Coeff:      0.323D+00 0.780D+00
 Gap=     0.204 Goal=   None    Shift=    0.000
 RMSDP=8.38D-06 MaxDP=1.96D-04 DE=-2.47D-05 OVMax= 5.36D-04

 Initial convergence to 1.0D-05 achieved.  Increase integral accuracy.
 Cycle   9  Pass 1  IDiag  1:
 E= -4018.87099620872     Delta-E=       -0.000860873719 Rises=F Damp=F
 DIIS: error= 1.47D-03 at cycle   1 NSaved=   1.
 NSaved= 1 IEnMin= 1 EnMin= -4018.87099620872     IErMin= 1 ErrMin= 1.47D-03
 ErrMax= 1.47D-03  0.00D+00 EMaxC= 1.00D-01 BMatC= 5.80D-04 BMatP= 5.80D-04
 IDIUse=3 WtCom= 9.85D-01 WtEn= 1.47D-02
 Coeff-Com:  0.100D+01
 Coeff-En:   0.100D+01
 Coeff:      0.100D+01
 Gap=     0.204 Goal=   None    Shift=    0.000
 RMSDP=8.38D-06 MaxDP=1.96D-04 DE=-8.61D-04 OVMax= 2.04D-03

 Cycle  10  Pass 1  IDiag  1:
 RMSU=  2.95D-04    CP:  9.99D-01
 E= -4018.87148310937     Delta-E=       -0.000486900648 Rises=F Damp=F
 DIIS: error= 5.29D-05 at cycle   2 NSaved=   2.
 NSaved= 2 IEnMin= 2 EnMin= -4018.87148310937     IErMin= 2 ErrMin= 5.29D-05
 ErrMax= 5.29D-05  0.00D+00 EMaxC= 1.00D-01 BMatC= 1.75D-06 BMatP= 5.80D-04
 IDIUse=1 WtCom= 1.00D+00 WtEn= 0.00D+00
 Coeff-Com: -0.381D-01 0.104D+01
 Coeff:     -0.381D-01 0.104D+01
 Gap=     0.204 Goal=   None    Shift=    0.000
 RMSDP=1.49D-05 MaxDP=3.67D-04 DE=-4.87D-04 OVMax= 5.92D-04

 Cycle  11  Pass 1  IDiag  1:
 RMSU=  3.87D-06    CP:  9.99D-01  1.05D+00
 E= -4018.87148393638     Delta-E=       -0.000000827007 Rises=F Damp=F
 DIIS: error= 3.81D-05 at cycle   3 NSaved=   3.
 NSaved= 3 IEnMin= 3 EnMin= -4018.87148393638     IErMin= 3 ErrMin= 3.81D-05
 ErrMax= 3.81D-05  0.00D+00 EMaxC= 1.00D-01 BMatC= 1.38D-06 BMatP= 1.75D-06
 IDIUse=1 WtCom= 1.00D+00 WtEn= 0.00D+00
 Coeff-Com: -0.224D-01 0.573D+00 0.449D+00
 Coeff:     -0.224D-01 0.573D+00 0.449D+00
 Gap=     0.204 Goal=   None    Shift=    0.000
 RMSDP=1.23D-06 MaxDP=8.61D-05 DE=-8.27D-07 OVMax= 4.07D-04

 Cycle  12  Pass 1  IDiag  1:
 RMSU=  1.16D-06    CP:  9.99D-01  1.05D+00  9.05D-01
 E= -4018.87148538547     Delta-E=       -0.000001449091 Rises=F Damp=F
 DIIS: error= 7.81D-06 at cycle   4 NSaved=   4.
 NSaved= 4 IEnMin= 4 EnMin= -4018.87148538547     IErMin= 4 ErrMin= 7.81D-06
 ErrMax= 7.81D-06  0.00D+00 EMaxC= 1.00D-01 BMatC= 5.99D-08 BMatP= 1.38D-06
 IDIUse=1 WtCom= 1.00D+00 WtEn= 0.00D+00
 Coeff-Com: -0.711D-03 0.613D-02 0.156D+00 0.838D+00
 Coeff:     -0.711D-03 0.613D-02 0.156D+00 0.838D+00
 Gap=     0.204 Goal=   None    Shift=    0.000
 RMSDP=4.02D-07 MaxDP=2.27D-05 DE=-1.45D-06 OVMax= 9.55D-05

 Cycle  13  Pass 1  IDiag  1:
 RMSU=  2.41D-07    CP:  9.99D-01  1.05D+00  9.71D-01  9.23D-01
 E= -4018.87148547334     Delta-E=       -0.000000087875 Rises=F Damp=F
 DIIS: error= 2.55D-06 at cycle   5 NSaved=   5.
 NSaved= 5 IEnMin= 5 EnMin= -4018.87148547334     IErMin= 5 ErrMin= 2.55D-06
 ErrMax= 2.55D-06  0.00D+00 EMaxC= 1.00D-01 BMatC= 9.55D-09 BMatP= 5.99D-08
 IDIUse=1 WtCom= 1.00D+00 WtEn= 0.00D+00
 Coeff-Com:  0.146D-02-0.428D-01 0.355D-01 0.386D+00 0.620D+00
 Coeff:      0.146D-02-0.428D-01 0.355D-01 0.386D+00 0.620D+00
 Gap=     0.204 Goal=   None    Shift=    0.000
 RMSDP=1.12D-07 MaxDP=7.26D-06 DE=-8.79D-08 OVMax= 2.41D-05

 Cycle  14  Pass 1  IDiag  1:
 RMSU=  9.92D-08    CP:  9.99D-01  1.05D+00  9.78D-01  9.53D-01  9.21D-01
 E= -4018.87148548756     Delta-E=       -0.000000014221 Rises=F Damp=F
 DIIS: error= 1.06D-06 at cycle   6 NSaved=   6.
 NSaved= 6 IEnMin= 6 EnMin= -4018.87148548756     IErMin= 6 ErrMin= 1.06D-06
 ErrMax= 1.06D-06  0.00D+00 EMaxC= 1.00D-01 BMatC= 1.05D-09 BMatP= 9.55D-09
 IDIUse=1 WtCom= 1.00D+00 WtEn= 0.00D+00
 Coeff-Com:  0.391D-03-0.948D-02-0.151D-01-0.359D-01 0.142D+00 0.918D+00
 Coeff:      0.391D-03-0.948D-02-0.151D-01-0.359D-01 0.142D+00 0.918D+00
 Gap=     0.204 Goal=   None    Shift=    0.000
 RMSDP=6.11D-08 MaxDP=3.74D-06 DE=-1.42D-08 OVMax= 1.74D-05

 Cycle  15  Pass 1  IDiag  1:
 RMSU=  4.40D-08    CP:  9.99D-01  1.05D+00  9.80D-01  9.58D-01  1.07D+00
                    CP:  1.19D+00
 E= -4018.87148549020     Delta-E=       -0.000000002641 Rises=F Damp=F
 DIIS: error= 6.97D-07 at cycle   7 NSaved=   7.
 NSaved= 7 IEnMin= 7 EnMin= -4018.87148549020     IErMin= 7 ErrMin= 6.97D-07
 ErrMax= 6.97D-07  0.00D+00 EMaxC= 1.00D-01 BMatC= 3.89D-10 BMatP= 1.05D-09
 IDIUse=1 WtCom= 1.00D+00 WtEn= 0.00D+00
 Coeff-Com: -0.313D-03 0.101D-01-0.201D-01-0.149D+00-0.137D+00 0.411D+00
 Coeff-Com:  0.886D+00
 Coeff:     -0.313D-03 0.101D-01-0.201D-01-0.149D+00-0.137D+00 0.411D+00
 Coeff:      0.886D+00
 Gap=     0.204 Goal=   None    Shift=    0.000
 RMSDP=4.43D-08 MaxDP=3.17D-06 DE=-2.64D-09 OVMax= 1.50D-05

 Cycle  16  Pass 1  IDiag  1:
 RMSU=  2.66D-08    CP:  9.99D-01  1.05D+00  9.80D-01  9.61D-01  1.16D+00
                    CP:  1.46D+00  1.21D+00
 E= -4018.87148549264     Delta-E=       -0.000000002434 Rises=F Damp=F
 DIIS: error= 2.68D-07 at cycle   8 NSaved=   8.
 NSaved= 8 IEnMin= 8 EnMin= -4018.87148549264     IErMin= 8 ErrMin= 2.68D-07
 ErrMax= 2.68D-07  0.00D+00 EMaxC= 1.00D-01 BMatC= 8.81D-11 BMatP= 3.89D-10
 IDIUse=1 WtCom= 1.00D+00 WtEn= 0.00D+00
 Coeff-Com: -0.211D-03 0.620D-02-0.587D-02-0.551D-01-0.842D-01-0.198D-01
 Coeff-Com:  0.390D+00 0.769D+00
 Coeff:     -0.211D-03 0.620D-02-0.587D-02-0.551D-01-0.842D-01-0.198D-01
 Coeff:      0.390D+00 0.769D+00
 Gap=     0.204 Goal=   None    Shift=    0.000
 RMSDP=1.84D-08 MaxDP=1.26D-06 DE=-2.43D-09 OVMax= 6.70D-06

 Cycle  17  Pass 1  IDiag  1:
 RMSU=  1.04D-08    CP:  9.99D-01  1.05D+00  9.80D-01  9.61D-01  1.18D+00
                    CP:  1.52D+00  1.49D+00  1.11D+00
 E= -4018.87148549161     Delta-E=        0.000000001022 Rises=F Damp=F
 DIIS: error= 1.37D-07 at cycle   9 NSaved=   9.
 NSaved= 9 IEnMin= 8 EnMin= -4018.87148549264     IErMin= 9 ErrMin= 1.37D-07
 ErrMax= 1.37D-07  0.00D+00 EMaxC= 1.00D-01 BMatC= 1.78D-11 BMatP= 8.81D-11
 IDIUse=1 WtCom= 1.00D+00 WtEn= 0.00D+00
 Coeff-Com: -0.702D-05-0.371D-04 0.241D-02 0.160D-01-0.554D-04-0.120D+00
 Coeff-Com: -0.505D-01 0.308D+00 0.845D+00
 Coeff:     -0.702D-05-0.371D-04 0.241D-02 0.160D-01-0.554D-04-0.120D+00
 Coeff:     -0.505D-01 0.308D+00 0.845D+00
 Gap=     0.204 Goal=   None    Shift=    0.000
 RMSDP=9.47D-09 MaxDP=6.26D-07 DE= 1.02D-09 OVMax= 4.20D-06

 Cycle  18  Pass 1  IDiag  1:
 RMSU=  5.01D-09    CP:  9.99D-01  1.05D+00  9.80D-01  9.61D-01  1.19D+00
                    CP:  1.55D+00  1.59D+00  1.34D+00  1.06D+00
 E= -4018.87148549074     Delta-E=        0.000000000877 Rises=F Damp=F
 DIIS: error= 7.75D-08 at cycle  10 NSaved=  10.
 NSaved=10 IEnMin= 8 EnMin= -4018.87148549264     IErMin=10 ErrMin= 7.75D-08
 ErrMax= 7.75D-08  0.00D+00 EMaxC= 1.00D-01 BMatC= 4.24D-12 BMatP= 1.78D-11
 IDIUse=1 WtCom= 1.00D+00 WtEn= 0.00D+00
 Coeff-Com:  0.344D-04-0.112D-02 0.198D-02 0.175D-01 0.147D-01-0.544D-01
 Coeff-Com: -0.849D-01-0.783D-03 0.385D+00 0.722D+00
 Coeff:      0.344D-04-0.112D-02 0.198D-02 0.175D-01 0.147D-01-0.544D-01
 Coeff:     -0.849D-01-0.783D-03 0.385D+00 0.722D+00
 Gap=     0.204 Goal=   None    Shift=    0.000
 RMSDP=3.88D-09 MaxDP=2.97D-07 DE= 8.77D-10 OVMax= 2.13D-06

 SCF Done:  E(RLC-wPBE) =  -4018.87148549     A.U. after   18 cycles
            NFock= 18  Conv=0.39D-08     -V/T= 2.0095
 KE= 3.981223060972D+03 PE=-4.437530910766D+04 EE= 1.885461275237D+04
 Leave Link  502 at Thu Aug  2 11:59:37 2018, MaxMem=   536870912 cpu:     11556.6
 (Enter /local/isv/Gaussian/09_D01.PG/g09/l801.exe)
 DoSCS=F DFT=T ScalE2(SS,OS)=  1.000000  1.000000
 ExpMin= 1.27D-01 ExpMax= 2.52D+04 ExpMxC= 3.78D+03 IAcc=3 IRadAn=         5 AccDes= 0.00D+00
 HarFok:  IExCor=  205 AccDes= 0.00D+00 IRadAn=         5 IDoV=-2 UseB2=F ITyADJ=14
 ICtDFT= 12500011 ScaDFX=  1.000000  1.000000  1.000000  1.000000
 Largest valence mixing into a core orbital is  6.36D-05
 Largest core mixing into a valence orbital is  1.38D-05
 Range of M.O.s used for correlation:    97  1408
 NBasis=  1408 NAE=   290 NBE=   290 NFC=    96 NFV=     0
 NROrb=   1312 NOA=   194 NOB=   194 NVA=  1118 NVB=  1118
 Leave Link  801 at Thu Aug  2 11:59:38 2018, MaxMem=   536870912 cpu:         5.6
 (Enter /local/isv/Gaussian/09_D01.PG/g09/l914.exe)
 RHF ground state
 MDV=   536870912 DFT=T DoStab=F Mixed=T DoRPA=T DoScal=F NonHer=T
 Would need an additional       2956696900000 words for in-memory AO integral storage.
 Making orbital integer symmetry assigments:
 Orbital symmetries:
       Occupied  (A) (A) (A) (A) (A) (A) (A) (A) (A) (A) (A) (A)
                 (A) (A) (A) (A) (A) (A) (A) (A) (A) (A) (A) (A)
                 (A) (A) (A) (A) (A) (A) (A) (A) (A) (A) (A) (A)
                 (A) (A) (A) (A) (A) (A) (A) (A) (A) (A) (A) (A)
                 (A) (A) (A) (A) (A) (A) (A) (A) (A) (A) (A) (A)
                 (A) (A) (A) (A) (A) (A) (A) (A) (A) (A) (A) (A)
                 (A) (A) (A) (A) (A) (A) (A) (A) (A) (A) (A) (A)
                 (A) (A) (A) (A) (A) (A) (A) (A) (A) (A) (A) (A)
                 (A) (A) (A) (A) (A) (A) (A) (A) (A) (A) (A) (A)
                 (A) (A) (A) (A) (A) (A) (A) (A) (A) (A) (A) (A)
                 (A) (A) (A) (A) (A) (A) (A) (A) (A) (A) (A) (A)
                 (A) (A) (A) (A) (A) (A) (A) (A) (A) (A) (A) (A)
                 (A) (A) (A) (A) (A) (A) (A) (A) (A) (A) (A) (A)
                 (A) (A) (A) (A) (A) (A) (A) (A) (A) (A) (A) (A)
                 (A) (A) (A) (A) (A) (A) (A) (A) (A) (A) (A) (A)
                 (A) (A) (A) (A) (A) (A) (A) (A) (A) (A) (A) (A)
                 (A) (A) (A) (A) (A) (A) (A) (A) (A) (A) (A) (A)
                 (A) (A) (A) (A) (A) (A) (A) (A) (A) (A) (A) (A)
                 (A) (A) (A) (A) (A) (A) (A) (A) (A) (A) (A) (A)
                 (A) (A) (A) (A) (A) (A) (A) (A) (A) (A) (A) (A)
                 (A) (A) (A) (A) (A) (A) (A) (A) (A) (A) (A) (A)
                 (A) (A) (A) (A) (A) (A) (A) (A) (A) (A) (A) (A)
                 (A) (A) (A) (A) (A) (A) (A) (A) (A) (A) (A) (A)
                 (A) (A) (A) (A) (A) (A) (A) (A) (A) (A) (A) (A)
                 (A) (A)
       Virtual   (A) (A) (A) (A) (A) (A) (A) (A) (A) (A) (A) (A)
                 (A) (A) (A) (A) (A) (A) (A) (A) (A) (A) (A) (A)
                 (A) (A) (A) (A) (A) (A) (A) (A) (A) (A) (A) (A)
                 (A) (A) (A) (A) (A) (A) (A) (A) (A) (A) (A) (A)
                 (A) (A) (A) (A) (A) (A) (A) (A) (A) (A) (A) (A)
                 (A) (A) (A) (A) (A) (A) (A) (A) (A) (A) (A) (A)
                 (A) (A) (A) (A) (A) (A) (A) (A) (A) (A) (A) (A)
                 (A) (A) (A) (A) (A) (A) (A) (A) (A) (A) (A) (A)
                 (A) (A) (A) (A) (A) (A) (A) (A) (A) (A) (A) (A)
                 (A) (A) (A) (A) (A) (A) (A) (A) (A) (A) (A) (A)
                 (A) (A) (A) (A) (A) (A) (A) (A) (A) (A) (A) (A)
                 (A) (A) (A) (A) (A) (A) (A) (A) (A) (A) (A) (A)
                 (A) (A) (A) (A) (A) (A) (A) (A) (A) (A) (A) (A)
                 (A) (A) (A) (A) (A) (A) (A) (A) (A) (A) (A) (A)
                 (A) (A) (A) (A) (A) (A) (A) (A) (A) (A) (A) (A)
                 (A) (A) (A) (A) (A) (A) (A) (A) (A) (A) (A) (A)
                 (A) (A) (A) (A) (A) (A) (A) (A) (A) (A) (A) (A)
                 (A) (A) (A) (A) (A) (A) (A) (A) (A) (A) (A) (A)
                 (A) (A) (A) (A) (A) (A) (A) (A) (A) (A) (A) (A)
                 (A) (A) (A) (A) (A) (A) (A) (A) (A) (A) (A) (A)
                 (A) (A) (A) (A) (A) (A) (A) (A) (A) (A) (A) (A)
                 (A) (A) (A) (A) (A) (A) (A) (A) (A) (A) (A) (A)
                 (A) (A) (A) (A) (A) (A) (A) (A) (A) (A) (A) (A)
                 (A) (A) (A) (A) (A) (A) (A) (A) (A) (A) (A) (A)
                 (A) (A) (A) (A) (A) (A) (A) (A) (A) (A) (A) (A)
                 (A) (A) (A) (A) (A) (A) (A) (A) (A) (A) (A) (A)
                 (A) (A) (A) (A) (A) (A) (A) (A) (A) (A) (A) (A)
                 (A) (A) (A) (A) (A) (A) (A) (A) (A) (A) (A) (A)
                 (A) (A) (A) (A) (A) (A) (A) (A) (A) (A) (A) (A)
                 (A) (A) (A) (A) (A) (A) (A) (A) (A) (A) (A) (A)
                 (A) (A) (A) (A) (A) (A) (A) (A) (A) (A) (A) (A)
                 (A) (A) (A) (A) (A) (A) (A) (A) (A) (A) (A) (A)
                 (A) (A) (A) (A) (A) (A) (A) (A) (A) (A) (A) (A)
                 (A) (A) (A) (A) (A) (A) (A) (A) (A) (A) (A) (A)
                 (A) (A) (A) (A) (A) (A) (A) (A) (A) (A) (A) (A)
                 (A) (A) (A) (A) (A) (A) (A) (A) (A) (A) (A) (A)
                 (A) (A) (A) (A) (A) (A) (A) (A) (A) (A) (A) (A)
                 (A) (A) (A) (A) (A) (A) (A) (A) (A) (A) (A) (A)
                 (A) (A) (A) (A) (A) (A) (A) (A) (A) (A) (A) (A)
                 (A) (A) (A) (A) (A) (A) (A) (A) (A) (A) (A) (A)
                 (A) (A) (A) (A) (A) (A) (A) (A) (A) (A) (A) (A)
                 (A) (A) (A) (A) (A) (A) (A) (A) (A) (A) (A) (A)
                 (A) (A) (A) (A) (A) (A) (A) (A) (A) (A) (A) (A)
                 (A) (A) (A) (A) (A) (A) (A) (A) (A) (A) (A) (A)
                 (A) (A) (A) (A) (A) (A) (A) (A) (A) (A) (A) (A)
                 (A) (A) (A) (A) (A) (A) (A) (A) (A) (A) (A) (A)
                 (A) (A) (A) (A) (A) (A) (A) (A) (A) (A) (A) (A)
                 (A) (A) (A) (A) (A) (A) (A) (A) (A) (A) (A) (A)
                 (A) (A) (A) (A) (A) (A) (A) (A) (A) (A) (A) (A)
                 (A) (A) (A) (A) (A) (A) (A) (A) (A) (A) (A) (A)
                 (A) (A) (A) (A) (A) (A) (A) (A) (A) (A) (A) (A)
                 (A) (A) (A) (A) (A) (A) (A) (A) (A) (A) (A) (A)
                 (A) (A) (A) (A) (A) (A) (A) (A) (A) (A) (A) (A)
                 (A) (A) (A) (A) (A) (A) (A) (A) (A) (A) (A) (A)
                 (A) (A) (A) (A) (A) (A) (A) (A) (A) (A) (A) (A)
                 (A) (A) (A) (A) (A) (A) (A) (A) (A) (A) (A) (A)
                 (A) (A) (A) (A) (A) (A) (A) (A) (A) (A) (A) (A)
                 (A) (A) (A) (A) (A) (A) (A) (A) (A) (A) (A) (A)
                 (A) (A) (A) (A) (A) (A) (A) (A) (A) (A) (A) (A)
                 (A) (A) (A) (A) (A) (A) (A) (A) (A) (A) (A) (A)
                 (A) (A) (A) (A) (A) (A) (A) (A) (A) (A) (A) (A)
                 (A) (A) (A) (A) (A) (A) (A) (A) (A) (A) (A) (A)
                 (A) (A) (A) (A) (A) (A) (A) (A) (A) (A) (A) (A)
                 (A) (A) (A) (A) (A) (A) (A) (A) (A) (A) (A) (A)
                 (A) (A) (A) (A) (A) (A) (A) (A) (A) (A) (A) (A)
                 (A) (A) (A) (A) (A) (A) (A) (A) (A) (A) (A) (A)
                 (A) (A) (A) (A) (A) (A) (A) (A) (A) (A) (A) (A)
                 (A) (A) (A) (A) (A) (A) (A) (A) (A) (A) (A) (A)
                 (A) (A) (A) (A) (A) (A) (A) (A) (A) (A) (A) (A)
                 (A) (A) (A) (A) (A) (A) (A) (A) (A) (A) (A) (A)
                 (A) (A) (A) (A) (A) (A) (A) (A) (A) (A) (A) (A)
                 (A) (A) (A) (A) (A) (A) (A) (A) (A) (A) (A) (A)
                 (A) (A) (A) (A) (A) (A) (A) (A) (A) (A) (A) (A)
                 (A) (A) (A) (A) (A) (A) (A) (A) (A) (A) (A) (A)
                 (A) (A) (A) (A) (A) (A) (A) (A) (A) (A) (A) (A)
                 (A) (A) (A) (A) (A) (A) (A) (A) (A) (A) (A) (A)
                 (A) (A) (A) (A) (A) (A) (A) (A) (A) (A) (A) (A)
                 (A) (A) (A) (A) (A) (A) (A) (A) (A) (A) (A) (A)
                 (A) (A) (A) (A) (A) (A) (A) (A) (A) (A) (A) (A)
                 (A) (A) (A) (A) (A) (A) (A) (A) (A) (A) (A) (A)
                 (A) (A) (A) (A) (A) (A) (A) (A) (A) (A) (A) (A)
                 (A) (A) (A) (A) (A) (A) (A) (A) (A) (A) (A) (A)
                 (A) (A) (A) (A) (A) (A) (A) (A) (A) (A) (A) (A)
                 (A) (A) (A) (A) (A) (A) (A) (A) (A) (A) (A) (A)
                 (A) (A) (A) (A) (A) (A) (A) (A) (A) (A) (A) (A)
                 (A) (A) (A) (A) (A) (A) (A) (A) (A) (A) (A) (A)
                 (A) (A) (A) (A) (A) (A) (A) (A) (A) (A) (A) (A)
                 (A) (A) (A) (A) (A) (A) (A) (A) (A) (A) (A) (A)
                 (A) (A) (A) (A) (A) (A) (A) (A) (A) (A) (A) (A)
                 (A) (A) (A) (A) (A) (A) (A) (A) (A) (A) (A) (A)
                 (A) (A) (A) (A) (A) (A) (A) (A) (A) (A) (A) (A)
                 (A) (A) (A) (A) (A) (A) (A) (A) (A) (A) (A) (A)
                 (A) (A) (A) (A) (A) (A) (A) (A) (A) (A) (A) (A)
                 (A) (A)
    40 initial guesses have been made.
 Convergence on wavefunction:    0.001000000000000
 Davidson Disk Diagonalization:  ConvIn= 1.00D-03 SkipCon=T Conv= 1.00D-03.
 Max sub-space:   200 roots to seek:    40 dimension of matrix:       433784
 Iteration     1 Dimension    40 NMult     0 NNew     40
 CISAX will form    14 AO SS matrices at one time.
 NMat=    14 NSing=    14 JSym2X= 0.
 FoFJK:  IHMeth= 1 ICntrl=       0 DoSepK=T KAlg= 0 I1Cent=   0 FoldK=F
 IRaf=         1 NMat=  28 IRICut=       1 DoRegI=T DoRafI=F ISym2E= 0.
 FoFCou: FMM=T IPFlag=           0 FMFlag=      100000 FMFlg1=        2001
         NFxFlg=           0 DoJE=F BraDBF=F KetDBF=F FulRan=T
         wScrn=  0.000000 ICntrl=     500 IOpCl=  0 I1Cent=           0 NGrid=           0
         NMat0=   14 NMatS0=     14 NMatT0=    0 NMatD0=   14 NMtDS0=    0 NMtDT0=    0
 Symmetry not used in FoFCou.
 FMM levels:  10  Number of levels for PrismC:   9
 NMat=    14 NSing=    14 JSym2X= 0.
 NMat=    12 NSing=    12 JSym2X= 0.
 New state      2 was old state      3
 New state      3 was old state      6
 New state      4 was old state     12
 New state      5 was old state     15
 New state      6 was old state      9
 New state      7 was old state      8
 New state      8 was old state      7
 New state      9 was old state     17
 New state     10 was old state     16
 Excitation Energies [eV] at current iteration:
 Root      1 :     3.229523590244308
 Root      2 :     3.276671540030639
 Root      3 :     3.432183061627225
 Root      4 :     3.439239129623686
 Root      5 :     3.447960201992625
 Root      6 :     3.462170712192425
 Root      7 :     3.472477613900296
 Root      8 :     3.473970037700352
 Root      9 :     3.496105142591734
 Root     10 :     3.501094604624878
 Root     11 :     3.503578605006353
 Root     12 :     3.514224418111684
 Root     13 :     3.523569477486110
 Root     14 :     3.598101720760813
 Root     15 :     3.607995302711864
 Root     16 :     4.079275894451334
 Root     17 :     4.081017270468723
 Root     18 :     4.106363031667656
 Root     19 :     4.109015863428519
 Root     20 :     4.128986000452576
 Root     21 :     5.014484940067139
 Root     22 :     5.019390304086289
 Root     23 :     5.029444740607716
 Root     24 :     5.037507652940851
 Root     25 :     5.054006943820601
 Root     26 :     5.056323536550791
 Root     27 :     5.059930829990406
 Root     28 :     5.127852298603448
 Root     29 :     5.138218835787730
 Root     30 :     5.220994537392740
 Root     31 :     5.252492370216221
 Root     32 :     5.315480663662088
 Root     33 :     5.345382141581685
 Root     34 :     5.612489360496100
 Root     35 :     5.681482358932615
 Root     36 :     5.737000823145196
 Root     37 :     5.793322744321614
 Root     38 :     5.893587959254545
 Root     39 :     5.956804208939797
 Root     40 :     6.006390933535864
 Iteration     2 Dimension    60 NMult    40 NNew     20
 CISAX will form    10 AO SS matrices at one time.
 NMat=    10 NSing=    10 JSym2X= 0.
 NMat=    10 NSing=    10 JSym2X= 0.
 New state      1 was old state     15
 Root      1 not converged, maximum delta is    0.328315693692236
 New state      2 was old state      4
 Root      2 not converged, maximum delta is    0.173108294676728
 Root      3 not converged, maximum delta is    0.172079646139241
 New state      4 was old state      5
 Root      4 not converged, maximum delta is    0.115331873662530
 New state      5 was old state      6
 Root      5 not converged, maximum delta is    0.325340683108229
 New state      6 was old state      8
 Root      6 not converged, maximum delta is    0.215509617485965
 Root      7 not converged, maximum delta is    0.134054893083976
 New state      8 was old state     10
 Root      8 not converged, maximum delta is    0.262262048165673
 New state      9 was old state      1
 Root      9 not converged, maximum delta is    0.219916260259165
 New state     10 was old state      9
 Root     10 not converged, maximum delta is    0.280793358259455
 Excitation Energies [eV] at current iteration:
 Root      1 :     2.858150686853275   Change is   -0.749844615858589
 Root      2 :     2.980718407133028   Change is   -0.458520722490658
 Root      3 :     2.987271786115439   Change is   -0.444911275511786
 Root      4 :     2.991284142540756   Change is   -0.456676059451869
 Root      5 :     3.050933089995611   Change is   -0.411237622196814
 Root      6 :     3.067938580425246   Change is   -0.406031457275107
 Root      7 :     3.072599011304561   Change is   -0.399878602595735
 Root      8 :     3.108303137035667   Change is   -0.392791467589211
 Root      9 :     3.167786304004644   Change is   -0.061737286239663
 Root     10 :     3.195603026447423   Change is   -0.300502116144311
 Iteration     3 Dimension    80 NMult    60 NNew     20
 CISAX will form    10 AO SS matrices at one time.
 NMat=    10 NSing=    10 JSym2X= 0.
 NMat=    10 NSing=    10 JSym2X= 0.
 Root      1 not converged, maximum delta is    0.084287405801979
 New state      2 was old state      8
 Root      2 not converged, maximum delta is    0.366388938730422
 New state      3 was old state      2
 Root      3 not converged, maximum delta is    0.113427938057185
 New state      4 was old state      3
 Root      4 not converged, maximum delta is    0.103545075613215
 New state      5 was old state      4
 Root      5 not converged, maximum delta is    0.016482030888991
 New state      6 was old state      5
 Root      6 not converged, maximum delta is    0.291193601145653
 New state      7 was old state      6
 Root      7 not converged, maximum delta is    0.086126863168317
 New state      8 was old state      7
 Root      8 not converged, maximum delta is    0.179118398390476
 Root      9 not converged, maximum delta is    0.254381373141300
 Root     10 not converged, maximum delta is    0.262228786211901
 Excitation Energies [eV] at current iteration:
 Root      1 :     2.552074512999955   Change is   -0.306076173853320
 Root      2 :     2.658609709950027   Change is   -0.449693427085640
 Root      3 :     2.943332175260506   Change is   -0.037386231872522
 Root      4 :     2.946571260373882   Change is   -0.040700525741558
 Root      5 :     2.951750137707617   Change is   -0.039534004833139
 Root      6 :     3.046817085818377   Change is   -0.004116004177234
 Root      7 :     3.051514294531758   Change is   -0.016424285893488
 Root      8 :     3.053704275002452   Change is   -0.018894736302109
 Root      9 :     3.117447240140631   Change is   -0.050339063864013
 Root     10 :     3.156204115499936   Change is   -0.039398910947487
 Iteration     4 Dimension   100 NMult    80 NNew     20
 CISAX will form    10 AO SS matrices at one time.
 NMat=    10 NSing=    10 JSym2X= 0.
 NMat=    10 NSing=    10 JSym2X= 0.
 Root      1 not converged, maximum delta is    0.038176063337986
 Root      2 not converged, maximum delta is    0.054573416125132
 Root      3 not converged, maximum delta is    0.054771487399898
 Root      4 not converged, maximum delta is    0.053285535769136
 Root      5 not converged, maximum delta is    0.020144034481130
 Root      6 not converged, maximum delta is    0.044249730192873
 Root      7 not converged, maximum delta is    0.104536434809880
 Root      8 not converged, maximum delta is    0.080375729249574
 Root      9 not converged, maximum delta is    0.035341272957134
 Root     10 not converged, maximum delta is    0.163352976475979
 Excitation Energies [eV] at current iteration:
 Root      1 :     2.472402778782359   Change is   -0.079671734217596
 Root      2 :     2.492994132278560   Change is   -0.165615577671467
 Root      3 :     2.940387290578125   Change is   -0.002944884682381
 Root      4 :     2.942350060564338   Change is   -0.004221199809544
 Root      5 :     2.949377930044999   Change is   -0.002372207662618
 Root      6 :     3.043009372260769   Change is   -0.003807713557608
 Root      7 :     3.049896567862580   Change is   -0.001617726669178
 Root      8 :     3.051823513658218   Change is   -0.001880761344234
 Root      9 :     3.112279825847416   Change is   -0.005167414293215
 Root     10 :     3.150532826323740   Change is   -0.005671289176196
 Iteration     5 Dimension   120 NMult   100 NNew     20
 CISAX will form    10 AO SS matrices at one time.
 NMat=    10 NSing=    10 JSym2X= 0.
 NMat=    10 NSing=    10 JSym2X= 0.
 Root      1 not converged, maximum delta is    0.112602670862036
 Root      2 not converged, maximum delta is    0.111562163959923
 Root      3 not converged, maximum delta is    0.015873097854004
 Root      4 not converged, maximum delta is    0.017422206750598
 Root      5 not converged, maximum delta is    0.002265459316331
 Root      6 not converged, maximum delta is    0.005434071447288
 Root      7 not converged, maximum delta is    0.006701619135229
 Root      8 not converged, maximum delta is    0.009781463296255
 Root      9 not converged, maximum delta is    0.021459025073847
 Root     10 not converged, maximum delta is    0.378771659558430
 Excitation Energies [eV] at current iteration:
 Root      1 :     2.462430601310146   Change is   -0.009972177472213
 Root      2 :     2.468858749260716   Change is   -0.024135383017845
 Root      3 :     2.939815971177351   Change is   -0.000571319400774
 Root      4 :     2.941635329447386   Change is   -0.000714731116952
 Root      5 :     2.948944102882241   Change is   -0.000433827162758
 Root      6 :     3.042618185856513   Change is   -0.000391186404256
 Root      7 :     3.049689289299554   Change is   -0.000207278563025
 Root      8 :     3.051584497168728   Change is   -0.000239016489491
 Root      9 :     3.111378772782364   Change is   -0.000901053065052
 Root     10 :     3.131561633893988   Change is   -0.018971192429752
 Iteration     6 Dimension   140 NMult   120 NNew     20
 CISAX will form    10 AO SS matrices at one time.
 NMat=    10 NSing=    10 JSym2X= 0.
 NMat=    10 NSing=    10 JSym2X= 0.
 Root      1 not converged, maximum delta is    0.057938775103637
 Root      2 not converged, maximum delta is    0.057606055064665
 Root      3 not converged, maximum delta is    0.002438166864952
 Root      4 not converged, maximum delta is    0.002395878315551
 Root      5 not converged, maximum delta is    0.001201613038246
 Root      6 not converged, maximum delta is    0.006213706618845
 Root      7 not converged, maximum delta is    0.006094360690137
 Root      8 not converged, maximum delta is    0.005906312878638
 Root      9 not converged, maximum delta is    0.037277532451874
 Root     10 not converged, maximum delta is    0.039959430274024
 Excitation Energies [eV] at current iteration:
 Root      1 :     2.460626242284194   Change is   -0.001804359025952
 Root      2 :     2.465435301600023   Change is   -0.003423447660693
 Root      3 :     2.939754961275302   Change is   -0.000061009902049
 Root      4 :     2.941553396534677   Change is   -0.000081932912710
 Root      5 :     2.948913606653957   Change is   -0.000030496228284
 Root      6 :     3.042490945780661   Change is   -0.000127240075852
 Root      7 :     3.049609492690874   Change is   -0.000079796608680
 Root      8 :     3.051519088735508   Change is   -0.000065408433219
 Root      9 :     3.110581183813352   Change is   -0.000797588969012
 Root     10 :     3.125371237990423   Change is   -0.006190395903565
 Iteration     7 Dimension   160 NMult   140 NNew     20
 CISAX will form    10 AO SS matrices at one time.
 NMat=    10 NSing=    10 JSym2X= 0.
 NMat=    10 NSing=    10 JSym2X= 0.
 Root      1 not converged, maximum delta is    0.012225096994571
 Root      2 not converged, maximum delta is    0.012254661288629
 Root      3 not converged, maximum delta is    0.002193640249729
 Root      4 not converged, maximum delta is    0.001316003003521
 Root      5 not converged, maximum delta is    0.001251461872290
 Root      6 not converged, maximum delta is    0.003970865201890
 Root      7 not converged, maximum delta is    0.008241512161822
 Root      8 not converged, maximum delta is    0.006138481016969
 Root      9 not converged, maximum delta is    0.062372607781307
 Root     10 not converged, maximum delta is    0.087179899668745
 Excitation Energies [eV] at current iteration:
 Root      1 :     2.460408993974263   Change is   -0.000217248309932
 Root      2 :     2.465129556269633   Change is   -0.000305745330390
 Root      3 :     2.939738275252153   Change is   -0.000016686023149
 Root      4 :     2.941534133707222   Change is   -0.000019262827455
 Root      5 :     2.948904083693536   Change is   -0.000009522960422
 Root      6 :     3.042447009340368   Change is   -0.000043936440293
 Root      7 :     3.049547235494614   Change is   -0.000062257196260
 Root      8 :     3.051480064610356   Change is   -0.000039024125152
 Root      9 :     3.109348935501559   Change is   -0.001232248311793
 Root     10 :     3.124032402826233   Change is   -0.001338835164190
 Iteration     8 Dimension   180 NMult   160 NNew     20
 CISAX will form    10 AO SS matrices at one time.
 NMat=    10 NSing=    10 JSym2X= 0.
 NMat=    10 NSing=    10 JSym2X= 0.
 Root      1 has converged.
 Root      2 has converged.
 Root      3 has converged.
 Root      4 has converged.
 Root      5 has converged.
 Root      6 not converged, maximum delta is    0.001214793964050
 Root      7 not converged, maximum delta is    0.003612309679323
 Root      8 not converged, maximum delta is    0.003105552213449
 Root      9 not converged, maximum delta is    0.038840104817574
 Root     10 not converged, maximum delta is    0.141525599395118
 Excitation Energies [eV] at current iteration:
 Root      1 :     2.460384283024130   Change is   -0.000024710950132
 Root      2 :     2.465093636660185   Change is   -0.000035919609448
 Root      3 :     2.939734196262661   Change is   -0.000004078989492
 Root      4 :     2.941530170184666   Change is   -0.000003963522555
 Root      5 :     2.948901880819854   Change is   -0.000002202873682
 Root      6 :     3.042435832840467   Change is   -0.000011176499902
 Root      7 :     3.049523321744262   Change is   -0.000023913750352
 Root      8 :     3.051464765050271   Change is   -0.000015299560085
 Root      9 :     3.108610085229935   Change is   -0.000738850271624
 Root     10 :     3.122903048750343   Change is   -0.001129354075890
 Iteration     9 Dimension   190 NMult   180 NNew     10
 CISAX will form    10 AO SS matrices at one time.
 NMat=    10 NSing=    10 JSym2X= 0.
 Root      1 has converged.
 Root      2 has converged.
 Root      3 has converged.
 Root      4 has converged.
 Root      5 has converged.
 Root      6 has converged.
 Root      7 not converged, maximum delta is    0.001309814115191
 Root      8 has converged.
 Root      9 not converged, maximum delta is    0.012122089701575
 Root     10 not converged, maximum delta is    0.077241461578833
 Excitation Energies [eV] at current iteration:
 Root      1 :     2.460384005796365   Change is   -0.000000277227765
 Root      2 :     2.465093211921090   Change is   -0.000000424739094
 Root      3 :     2.939733671831901   Change is   -0.000000524430760
 Root      4 :     2.941529703921697   Change is   -0.000000466262969
 Root      5 :     2.948901545539920   Change is   -0.000000335279933
 Root      6 :     3.042432853740205   Change is   -0.000002979100261
 Root      7 :     3.049516466413443   Change is   -0.000006855330819
 Root      8 :     3.051460718492241   Change is   -0.000004046558030
 Root      9 :     3.108381691273353   Change is   -0.000228393956582
 Root     10 :     3.122335305234004   Change is   -0.000567743516339
 Iteration    10 Dimension   196 NMult   190 NNew      6
 CISAX will form     6 AO SS matrices at one time.
 NMat=     6 NSing=     6 JSym2X= 0.
 Root      1 has converged.
 Root      2 has converged.
 Root      3 has converged.
 Root      4 has converged.
 Root      5 has converged.
 Root      6 has converged.
 Root      7 has converged.
 Root      8 has converged.
 Root      9 not converged, maximum delta is    0.004356085158029
 Root     10 not converged, maximum delta is    0.032290659802547
 Excitation Energies [eV] at current iteration:
 Root      1 :     2.460383867323221   Change is   -0.000000138473144
 Root      2 :     2.465092776269645   Change is   -0.000000435651445
 Root      3 :     2.939733510604592   Change is   -0.000000161227309
 Root      4 :     2.941529634996643   Change is   -0.000000068925054
 Root      5 :     2.948901488785546   Change is   -0.000000056754374
 Root      6 :     3.042432748208670   Change is   -0.000000105531536
 Root      7 :     3.049514801911054   Change is   -0.000001664502389
 Root      8 :     3.051460239124256   Change is   -0.000000479367985
 Root      9 :     3.108315919200765   Change is   -0.000065772072588
 Root     10 :     3.122113616159205   Change is   -0.000221689074799
 Iteration    11 Dimension   200 NMult   196 NNew      4
 CISAX will form     4 AO SS matrices at one time.
 NMat=     4 NSing=     4 JSym2X= 0.
 Root      1 has converged.
 Root      2 has converged.
 Root      3 has converged.
 Root      4 has converged.
 Root      5 has converged.
 Root      6 has converged.
 Root      7 has converged.
 Root      8 has converged.
 Root      9 not converged, maximum delta is    0.001981257747149
 Root     10 not converged, maximum delta is    0.014717193705759
 Excitation Energies [eV] at current iteration:
 Root      1 :     2.460383851915560   Change is   -0.000000015407661
 Root      2 :     2.465092638952052   Change is   -0.000000137317593
 Root      3 :     2.939733426930985   Change is   -0.000000083673607
 Root      4 :     2.941529604008400   Change is   -0.000000030988243
 Root      5 :     2.948901468698896   Change is   -0.000000020086650
 Root      6 :     3.042432684176454   Change is   -0.000000064032216
 Root      7 :     3.049514459931130   Change is   -0.000000341979924
 Root      8 :     3.051460109654375   Change is   -0.000000129469882
 Root      9 :     3.108296591864144   Change is   -0.000019327336622
 Root     10 :     3.122023758549428   Change is   -0.000089857609777
 Davidson failed to converge within maximum sub-space dimensions.
  Restart with updated initial guess:
 Iteration     1 Dimension    24 NMult   200 NNew     24
 CISAX will form    12 AO SS matrices at one time.
 NMat=    12 NSing=    12 JSym2X= 0.
 NMat=    12 NSing=    12 JSym2X= 0.
 Excitation Energies [eV] at current iteration:
 Root      1 :     2.460383839788804
 Root      2 :     2.465092579569780
 Root      3 :     2.939733364316907
 Root      4 :     2.941529579510641
 Root      5 :     2.948901438112778
 Root      6 :     3.042432636854711
 Root      7 :     3.049514276160810
 Root      8 :     3.051459993494008
 Root      9 :     3.108291737958947
 Root     10 :     3.121993684959037
 Iteration     2 Dimension    44 NMult   224 NNew     20
 CISAX will form    10 AO SS matrices at one time.
 NMat=    10 NSing=    10 JSym2X= 0.
 NMat=    10 NSing=    10 JSym2X= 0.
 Root      1 has converged.
 Root      2 has converged.
 Root      3 has converged.
 Root      4 has converged.
 Root      5 has converged.
 Root      6 has converged.
 Root      7 has converged.
 Root      8 has converged.
 Root      9 has converged.
 Root     10 has converged.
 Excitation Energies [eV] at current iteration:
 Root      1 :     2.460380154802142   Change is   -0.000003684986662
 Root      2 :     2.465088799746894   Change is   -0.000003779822886
 Root      3 :     2.939732740121727   Change is   -0.000000624195180
 Root      4 :     2.941528787464733   Change is   -0.000000792045908
 Root      5 :     2.948901223287697   Change is   -0.000000214825081
 Root      6 :     3.042431788201326   Change is   -0.000000848653384
 Root      7 :     3.049513956137908   Change is   -0.000000320022902
 Root      8 :     3.051459517969441   Change is   -0.000000475524567
 Root      9 :     3.108289264674974   Change is   -0.000002473283973
 Root     10 :     3.121977600029874   Change is   -0.000016084929163
 Convergence achieved on expansion vectors.
 ***********************************************************************
 Excited states from <AA,BB:AA,BB> singles matrix:
 ***********************************************************************
 
 1PDM for each excited state written to RWF  633
 Ground to excited state transition densities written to RWF  633
 Ground to excited state transition electric dipole moments (Au):
       state          X           Y           Z        Dip. S.      Osc.
         1         0.0289     -1.6213     -1.0266      3.6834      0.2220
         2        -0.0132     -1.0337      1.6379      3.7515      0.2266
         3        -0.0079     -0.0007      0.0015      0.0001      0.0000
         4        -0.0014      0.0003      0.0042      0.0000      0.0000
         5        -0.0045     -0.0118     -0.0009      0.0002      0.0000
         6         0.0085     -0.0015      0.0013      0.0001      0.0000
         7        -0.0013      0.0155      0.0049      0.0003      0.0000
         8         0.0088      0.0136      0.0043      0.0003      0.0000
         9        -0.0107      0.0160     -0.0309      0.0013      0.0001
        10        -0.0141     -0.0066      0.0015      0.0002      0.0000
 Ground to excited state transition velocity dipole moments (Au):
       state          X           Y           Z        Dip. S.      Osc.
         1        -0.0025      0.1491      0.0946      0.0312      0.2300
         2         0.0013      0.0952     -0.1510      0.0319      0.2347
         3         0.0006      0.0001      0.0000      0.0000      0.0000
         4         0.0002     -0.0001     -0.0007      0.0000      0.0000
         5         0.0005      0.0013      0.0002      0.0000      0.0000
         6        -0.0008      0.0004     -0.0001      0.0000      0.0000
         7         0.0003     -0.0015     -0.0004      0.0000      0.0000
         8        -0.0008     -0.0014     -0.0005      0.0000      0.0000
         9         0.0006     -0.0024      0.0030      0.0000      0.0001
        10         0.0016      0.0009     -0.0002      0.0000      0.0000
 Ground to excited state transition magnetic dipole moments (Au):
       state          X           Y           Z
         1        -0.0170      1.1296     -1.7284
         2         0.0112     -1.7676     -1.0947
         3        -0.0853      0.2443      0.2074
         4        -0.1064      0.3468      0.1166
         5         0.0812      0.2855     -0.2145
         6         1.7907      5.2568      0.3099
         7         2.8379     -1.1749      4.8618
         8        -4.7465      1.4136      3.0540
         9         0.1989      0.7734      0.3504
        10        -0.4636     -0.7259     -0.4570
 Ground to excited state transition velocity quadrupole moments (Au):
       state          XX          YY          ZZ          XY          XZ          YZ
         1         0.0158      0.5144     -0.5015     -1.0910     -0.6840     -0.3912
         2        -0.0049      0.3879     -0.3840     -0.7006      1.0976      0.5184
         3        -0.0011      0.0038     -0.0035     -0.0016      0.0098      0.0001
         4         0.0004     -0.0001      0.0037     -0.0003      0.0133     -0.0105
         5        -0.0022      0.0030     -0.0030     -0.0064      0.0021      0.0054
         6        -0.0107      0.0127      0.0020     -0.0038      0.0225      0.0134
         7        -0.0131      0.0075      0.0074      0.0064      0.0020     -0.0035
         8        -0.0011     -0.0072      0.0173      0.0045      0.0027      0.0011
         9         0.0225     -0.0263      0.0065      0.0199     -0.0141     -0.0282
        10        -0.0234      0.0177     -0.0051     -0.0066      0.0054      0.0050
 <0|del|b> * <b|rxdel|0> + <0|del|b> * <b|delr+rdel|0>
 Rotatory Strengths (R) in cgs (10**-40 erg-esu-cm/Gauss)
       state          XX          YY          ZZ    R(velocity)    E-M Angle
         1        14.3744   -231.7917    256.1315     12.9047       89.22
         2        -6.5722    234.9885   -251.5404     -7.7080       90.46
         3         0.0671     -0.1987     -0.0686     -0.0667       90.00
         4        -0.3456     -0.3403     -0.1519     -0.2793      117.71
         5         1.1126      0.0202      1.3750      0.8359       42.94
         6         7.3810     -4.4346      3.1820      2.0428       78.73
         7        -0.7233     -3.7026      8.0325      1.2022       86.36
         8       -11.2711      7.4768      6.2561      0.8206       87.75
         9        -2.2461      3.4111     -5.1447     -1.3266      100.92
        10        -1.7787     -1.9774     -4.4081     -2.7214      136.20
 1/2[<0|r|b>*<b|rxdel|0> + (<0|rxdel|b>*<b|r|0>)*]
 Rotatory Strengths (R) in cgs (10**-40 erg-esu-cm/Gauss)
       state          XX          YY          ZZ     R(length)
         1         0.3476   1295.1341  -1254.7881     13.5645
         2         0.1046  -1292.0697   1268.0201     -7.9817
         3        -0.4763      0.1211     -0.2226     -0.1926
[...]
 Alpha virt. eigenvalues --    1.36099   1.36416   1.36747   1.37162   1.37236
 Alpha virt. eigenvalues --    1.37521   1.38089   1.38520   1.39028   1.39261
 Alpha virt. eigenvalues --    1.39911   1.40636   1.41386   1.41957   1.42018
 Alpha virt. eigenvalues --    1.42209   1.42320   1.43003   1.43890   1.44605
 Alpha virt. eigenvalues --    1.45344   1.45522   1.45947   1.46301   1.46443
 Alpha virt. eigenvalues --    1.46720   1.46983   1.47091   1.47374   1.47435
 Alpha virt. eigenvalues --    1.47686   1.47982   1.48410   1.48976   1.49263
 Alpha virt. eigenvalues --    1.49554   1.49952   1.51465   1.52228   1.52858
 Alpha virt. eigenvalues --    1.53185   1.53629   1.54045   1.54469   1.54698
 Alpha virt. eigenvalues --    1.54992   1.55134   1.55516   1.55740   1.55862
 Alpha virt. eigenvalues --    1.55996   1.56130   1.56284   1.56389   1.56507
 Alpha virt. eigenvalues --    1.56855   1.56955   1.57301   1.57487   1.57730
 Alpha virt. eigenvalues --    1.58008   1.58533   1.59179   1.59673   1.59832
 Alpha virt. eigenvalues --    1.59976   1.60526   1.60761   1.61312   1.61646
 Alpha virt. eigenvalues --    1.62208   1.62363   1.62658   1.62920   1.63235
 Alpha virt. eigenvalues --    1.63452   1.63770   1.64076   1.64335   1.64698
 Alpha virt. eigenvalues --    1.64981   1.65170   1.65501   1.66097   1.66988
 Alpha virt. eigenvalues --    1.67668   1.67851   1.67940   1.68134   1.68842
 Alpha virt. eigenvalues --    1.69032   1.69816   1.70843   1.72257   1.73394
 Alpha virt. eigenvalues --    1.73551   1.73581   1.74624   1.75883   1.75942
 Alpha virt. eigenvalues --    1.76121   1.76336   1.76393   1.76797   1.77093
 Alpha virt. eigenvalues --    1.77384   1.78513   1.79492   1.79580   1.79679
 Alpha virt. eigenvalues --    1.80439   1.80773   1.80934   1.81146   1.81189
 Alpha virt. eigenvalues --    1.81255   1.81294   1.81688   1.81729   1.82117
 Alpha virt. eigenvalues --    1.82254   1.82797   1.83435   1.83547   1.83757
 Alpha virt. eigenvalues --    1.83933   1.84138   1.84266   1.84373   1.84538
 Alpha virt. eigenvalues --    1.84638   1.84868   1.85058   1.85216   1.85500
 Alpha virt. eigenvalues --    1.85704   1.85973   1.86110   1.86639   1.87077
 Alpha virt. eigenvalues --    1.87306   1.87534   1.87678   1.88079   1.89197
 Alpha virt. eigenvalues --    1.90064   1.90083   1.90249   1.90871   1.91033
 Alpha virt. eigenvalues --    1.91127   1.91348   1.91577   1.91612   1.91645
 Alpha virt. eigenvalues --    1.91987   1.92177   1.92916   1.93159   1.93337
 Alpha virt. eigenvalues --    1.93390   1.93566   1.94435   1.94800   1.95356
 Alpha virt. eigenvalues --    1.96306   1.96375   1.97063   1.97580   1.98068
 Alpha virt. eigenvalues --    1.98198   1.98528   1.98842   1.98982   1.99364
 Alpha virt. eigenvalues --    1.99667   2.00128   2.00453   2.00531   2.00727
 Alpha virt. eigenvalues --    2.01102   2.02304   2.02452   2.02673   2.02905
 Alpha virt. eigenvalues --    2.03343   2.03635   2.04254   2.04580   2.04879
 Alpha virt. eigenvalues --    2.04929   2.05368   2.05643   2.05893   2.06186
 Alpha virt. eigenvalues --    2.07574   2.07810   2.07890   2.08273   2.08337
 Alpha virt. eigenvalues --    2.08427   2.08513   2.08629   2.08865   2.09122
 Alpha virt. eigenvalues --    2.09385   2.09677   2.09812   2.10018   2.10030
 Alpha virt. eigenvalues --    2.10052   2.10164   2.10221   2.10507   2.10576
 Alpha virt. eigenvalues --    2.10629   2.10748   2.10834   2.10868   2.11132
 Alpha virt. eigenvalues --    2.11611   2.11928   2.12085   2.12412   2.12583
 Alpha virt. eigenvalues --    2.12644   2.13169   2.13481   2.13639   2.14074
 Alpha virt. eigenvalues --    2.14109   2.14469   2.14609   2.14745   2.14847
 Alpha virt. eigenvalues --    2.15066   2.15353   2.15656   2.15908   2.16207
 Alpha virt. eigenvalues --    2.16344   2.16845   2.17411   2.18073   2.18952
 Alpha virt. eigenvalues --    2.19247   2.19953   2.20245   2.20656   2.20847
 Alpha virt. eigenvalues --    2.21596   2.21968   2.22489   2.23183   2.23309
 Alpha virt. eigenvalues --    2.23895   2.24820   2.24954   2.25209   2.26507
 Alpha virt. eigenvalues --    2.27364   2.27759   2.27969   2.28274   2.28793
 Alpha virt. eigenvalues --    2.29157   2.29208   2.29459   2.29620   2.29722
 Alpha virt. eigenvalues --    2.30238   2.30905   2.31247   2.31927   2.32220
 Alpha virt. eigenvalues --    2.32943   2.32968   2.33338   2.33438   2.33727
 Alpha virt. eigenvalues --    2.33760   2.34009   2.34086   2.34410   2.34499
 Alpha virt. eigenvalues --    2.34653   2.35016   2.35191   2.35249   2.36891
 Alpha virt. eigenvalues --    2.37324   2.37734   2.37795   2.37873   2.38204
 Alpha virt. eigenvalues --    2.38277   2.38754   2.38869   2.39705   2.40362
 Alpha virt. eigenvalues --    2.40727   2.41009   2.41096   2.41116   2.41375
 Alpha virt. eigenvalues --    2.41405   2.41790   2.42054   2.42179   2.42545
 Alpha virt. eigenvalues --    2.42826   2.43000   2.43028   2.43189   2.43367
 Alpha virt. eigenvalues --    2.43600   2.43903   2.44114   2.44305   2.45555
 Alpha virt. eigenvalues --    2.45929   2.47302   2.48016   2.48144   2.48574
 Alpha virt. eigenvalues --    2.48622   2.49305   2.49721   2.50560   2.51569
 Alpha virt. eigenvalues --    2.54287   2.54445   2.54629   2.55194   2.55452
 Alpha virt. eigenvalues --    2.55570   2.55992   2.56078   2.56374   2.56720
 Alpha virt. eigenvalues --    2.56815   2.57141   2.57692   2.57930   2.58141
 Alpha virt. eigenvalues --    2.58735   2.59126   2.59198   2.59312   2.59564
 Alpha virt. eigenvalues --    2.59755   2.59867   2.60078   2.60198   2.60300
 Alpha virt. eigenvalues --    2.60748   2.61181   2.61993   2.62200   2.63861
 Alpha virt. eigenvalues --    2.64111   2.64337   2.65394   2.66622   2.67241
 Alpha virt. eigenvalues --    2.67669   2.68041   2.69014   2.69435   2.69861
 Alpha virt. eigenvalues --    2.70170   2.70340   2.70489   2.70631   2.70892
 Alpha virt. eigenvalues --    2.71031   2.71044   2.71299   2.71435   2.71820
 Alpha virt. eigenvalues --    2.72579   2.73063   2.73162   2.73316   2.73785
 Alpha virt. eigenvalues --    2.73840   2.74155   2.74377   2.74676   2.74723
 Alpha virt. eigenvalues --    2.75213   2.75578   2.75739   2.76110   2.76210
 Alpha virt. eigenvalues --    2.76470   2.76714   2.76887   2.77426   2.77518
 Alpha virt. eigenvalues --    2.77901   2.78191   2.78468   2.78573   2.78887
 Alpha virt. eigenvalues --    2.79239   2.79855   2.79967   2.80673   2.81209
 Alpha virt. eigenvalues --    2.82234   2.82367   2.82443   2.82571   2.82680
 Alpha virt. eigenvalues --    2.82928   2.83254   2.83351   2.83451   2.83658
 Alpha virt. eigenvalues --    2.83828   2.84576   2.84964   2.86211   2.86719
 Alpha virt. eigenvalues --    2.87212   2.87285   2.88043   2.88333   2.88586
 Alpha virt. eigenvalues --    2.88714   2.90370   2.91000   2.91349   2.92280
 Alpha virt. eigenvalues --    2.92547   2.92683   2.92692   2.92788   2.93860
 Alpha virt. eigenvalues --    2.93911   2.94662   2.94804   2.94949   2.95974
 Alpha virt. eigenvalues --    2.96150   2.96249   2.96338   2.96492   2.96523
 Alpha virt. eigenvalues --    2.96833   2.97030   2.97541   2.97822   2.98225
 Alpha virt. eigenvalues --    2.98703   2.98775   2.98951   2.99421   2.99944
 Alpha virt. eigenvalues --    3.00312   3.00901   3.01248   3.02171   3.02687
 Alpha virt. eigenvalues --    3.03800   3.04011   3.04072   3.05426   3.05463
 Alpha virt. eigenvalues --    3.06773   3.07090   3.07810   3.08080   3.08255
 Alpha virt. eigenvalues --    3.08515   3.08838   3.09420   3.09637   3.11654
 Alpha virt. eigenvalues --    3.12058   3.12456   3.12988   3.13416   3.13731
 Alpha virt. eigenvalues --    3.13921   3.15605   3.18243   3.21639   3.22167
 Alpha virt. eigenvalues --    3.22349   3.22714   3.23875   3.24032   3.24085
 Alpha virt. eigenvalues --    3.24431   3.30967   3.31062   3.31937   3.32249
 Alpha virt. eigenvalues --    3.34939   3.35332   3.36079   3.39090   3.39160
 Alpha virt. eigenvalues --    3.39238   3.39390   3.39553   3.39726   3.44094
 Alpha virt. eigenvalues --    3.44672   3.46649   3.51150   3.51259   3.51297
 Alpha virt. eigenvalues --    3.51528   3.53704   3.60523   3.60541   3.60759
 Alpha virt. eigenvalues --    3.62868   3.63012   3.66435   3.66888   3.67482
 Alpha virt. eigenvalues --    3.75494   3.79135   4.14585   4.14794   4.14887
 Alpha virt. eigenvalues --    4.15543   4.16359   4.16401   4.17550   4.17620
 Alpha virt. eigenvalues --    4.18068   4.20055   4.20503   4.21098   4.22188
 Alpha virt. eigenvalues --    4.22563   4.23458   4.23999   4.24653   4.24981
 Alpha virt. eigenvalues --    4.25559   4.25829   4.26844   4.27520   4.28851
 Alpha virt. eigenvalues --    4.29975   4.30881   4.31209   4.31794   4.32138
 Alpha virt. eigenvalues --    4.32513   4.32889   4.34325   4.35490   4.36463
 Alpha virt. eigenvalues --    4.36876   4.37571   4.38402   4.39574   4.40171
 Alpha virt. eigenvalues --    4.41451   4.42655   4.43161   4.43254   4.44912
 Alpha virt. eigenvalues --    4.45787   4.46351   4.46994   4.48916   4.49919
 Alpha virt. eigenvalues --    4.50340   4.50953   4.52022   4.52313   4.52579
 Alpha virt. eigenvalues --    4.53710   4.58109   4.58575   4.59352   4.61871
 Alpha virt. eigenvalues --    4.62258   4.62789   4.65342   4.68064   4.68910
 Alpha virt. eigenvalues --    4.69538   4.70553   4.72522   4.76738   4.76963
 Alpha virt. eigenvalues --    4.77261   4.77956   4.78458   4.84284   4.90460
 Alpha virt. eigenvalues --    4.92055   4.92699   4.93193   4.93698   4.93857
 Alpha virt. eigenvalues --    4.94323   5.03527   5.03679   5.03787   5.04098
 Alpha virt. eigenvalues --    5.04649   5.24375   5.24528   5.24584   5.24946
 Alpha virt. eigenvalues --    5.40403   5.40682   5.41012
          Condensed to atoms (all electrons):
 Mulliken charges:
               1
     1  C   -0.171883
     2  C   -0.172934
     3  C   -0.194074
     4  C    0.018830
     5  C   -0.195416
     6  C    0.014942
     7  C    0.431026
     8  N   -0.544140
     9  H    0.180972
    10  H    0.180818
    11  H    0.197758
    12  H    0.197603
    13  C    0.424285
    14  N   -0.464269
    15  C   -0.171562
    16  C   -0.172833
    17  C   -0.193020
    18  C    0.015081
    19  C   -0.193946
    20  C    0.014832
    21  C    0.427116
    22  N   -0.546595
    23  H    0.180833
    24  H    0.180914
    25  H    0.197628
    26  H    0.197711
    27  B    0.509814
    28  C    0.429126
    29  N   -0.465832
    30  C   -0.174898
    31  C   -0.172488
    32  C   -0.193916
    33  C    0.017701
    34  C   -0.195747
    35  C    0.014642
    36  C    0.428556
    37  N   -0.548331
    38  H    0.180918
    39  H    0.180758
    40  H    0.197235
    41  H    0.197899
    42  C    0.431757
    43  N   -0.463947
    44  Cl  -0.190063
    45  C   -0.001114
    46  C   -0.004745
    47  C   -0.003173
    48  C   -0.000769
    49  C   -0.001084
    50  C   -0.000623
    51  C   -0.000606
    52  C   -0.000735
    53  C   -0.000802
    54  C   -0.004522
    55  C   -0.001138
    56  C   -0.004830
    57  C    0.011555
    58  C    0.013096
    59  C    0.004296
    60  C   -0.005584
    61  C   -0.004605
    62  C    0.004090
    63  C    0.000675
    64  C   -0.011565
    65  C   -0.016544
    66  C    0.011684
    67  C    0.012835
    68  C   -0.004646
    69  C   -0.002166
    70  C   -0.001153
    71  C   -0.000726
    72  C   -0.000529
    73  C   -0.000640
    74  C   -0.000372
    75  C   -0.000252
    76  C   -0.000690
    77  C   -0.000516
    78  C   -0.000944
    79  C   -0.001518
    80  C   -0.002822
    81  C   -0.004459
    82  C   -0.003299
    83  C    0.012382
    84  C    0.018131
    85  C    0.018377
    86  C   -0.011563
    87  C   -0.002322
    88  C   -0.001068
    89  C   -0.001402
    90  C   -0.001870
    91  C   -0.001660
    92  C   -0.010626
    93  C   -0.002552
    94  C   -0.000907
    95  C   -0.001336
    96  C   -0.000925
    97  C   -0.000910
    98  C   -0.000534
    99  C   -0.000573
   100  C   -0.000845
   101  C   -0.001550
   102  C   -0.000950
   103  C   -0.000504
   104  C   -0.000710
 Sum of Mulliken charges =   0.00000
 Mulliken charges with hydrogens summed into heavy atoms:
               1
     1  C    0.009089
     2  C    0.007884
     3  C    0.003684
     4  C    0.018830
     5  C    0.002187
     6  C    0.014942
     7  C    0.431026
     8  N   -0.544140
    13  C    0.424285
    14  N   -0.464269
    15  C    0.009271
    16  C    0.008082
    17  C    0.004608
    18  C    0.015081
    19  C    0.003765
    20  C    0.014832
    21  C    0.427116
    22  N   -0.546595
    27  B    0.509814
    28  C    0.429126
    29  N   -0.465832
    30  C    0.006020
    31  C    0.008270
    32  C    0.003319
    33  C    0.017701
    34  C    0.002152
    35  C    0.014642
    36  C    0.428556
    37  N   -0.548331
    42  C    0.431757
    43  N   -0.463947
    44  Cl  -0.190063
    45  C   -0.001114
    46  C   -0.004745
    47  C   -0.003173
    48  C   -0.000769
    49  C   -0.001084
    50  C   -0.000623
    51  C   -0.000606
    52  C   -0.000735
    53  C   -0.000802
    54  C   -0.004522
    55  C   -0.001138
    56  C   -0.004830
    57  C    0.011555
    58  C    0.013096
    59  C    0.004296
    60  C   -0.005584
    61  C   -0.004605
    62  C    0.004090
    63  C    0.000675
    64  C   -0.011565
    65  C   -0.016544
    66  C    0.011684
    67  C    0.012835
    68  C   -0.004646
    69  C   -0.002166
    70  C   -0.001153
    71  C   -0.000726
    72  C   -0.000529
    73  C   -0.000640
    74  C   -0.000372
    75  C   -0.000252
    76  C   -0.000690
    77  C   -0.000516
    78  C   -0.000944
    79  C   -0.001518
    80  C   -0.002822
    81  C   -0.004459
    82  C   -0.003299
    83  C    0.012382
    84  C    0.018131
    85  C    0.018377
    86  C   -0.011563
    87  C   -0.002322
    88  C   -0.001068
    89  C   -0.001402
    90  C   -0.001870
    91  C   -0.001660
    92  C   -0.010626
    93  C   -0.002552
    94  C   -0.000907
    95  C   -0.001336
    96  C   -0.000925
    97  C   -0.000910
    98  C   -0.000534
    99  C   -0.000573
   100  C   -0.000845
   101  C   -0.001550
   102  C   -0.000950
   103  C   -0.000504
   104  C   -0.000710
 Electronic spatial extent (au):  <R**2>=          46115.5780
 Charge=              0.0000 electrons
 Dipole moment (field-independent basis, Debye):
    X=              4.1566    Y=              0.0587    Z=             -0.0026  Tot=              4.1570
 Quadrupole moment (field-independent basis, Debye-Ang):
   XX=           -558.2213   YY=           -481.7243   ZZ=           -482.2481
   XY=             -0.5929   XZ=             -0.0979   YZ=              0.0913
 Traceless Quadrupole moment (field-independent basis, Debye-Ang):
   XX=            -50.8234   YY=             25.6736   ZZ=             25.1498
   XY=             -0.5929   XZ=             -0.0979   YZ=              0.0913
 Octapole moment (field-independent basis, Debye-Ang**2):
  XXX=            193.5522  YYY=             44.5897  ZZZ=              2.6257  XYY=            -84.5499
  XXY=              2.1563  XXZ=              0.9511  XZZ=            -80.4500  YZZ=            -41.6651
  YYZ=             -3.6995  XYZ=             -0.1345
 Hexadecapole moment (field-independent basis, Debye-Ang**3):
 XXXX=         -37761.8720 YYYY=         -14953.1576 ZZZZ=         -14946.4508 XXXY=             -8.6206
 XXXZ=             -4.2989 YYYX=            -18.5440 YYYZ=              1.3744 ZZZX=             -1.0060
 ZZZY=              1.0065 XXYY=          -8619.5840 XXZZ=          -8620.6363 YYZZ=          -4983.3989
 XXYZ=              1.0892 YYXZ=             -0.9577 ZZXY=             -2.3800
 N-N= 1.752060180882D+04 E-N=-4.437530910558D+04  KE= 3.981223060972D+03
 Leave Link  601 at Thu Aug  2 14:41:24 2018, MaxMem=   536870912 cpu:        29.1
 (Enter /local/isv/Gaussian/09_D01.PG/g09/l9999.exe)
 1\1\GINC-DMP7P-15\SP\RLC-wPBE TD-FC\6-31G(d)\C84H12B1Cl1N6\E1667\02-Au
 g-2018\0\\#p LC-wPBE/6-31g* TD=(singlets,root=1,nstates=10) units=(ang
 ,deg)\\SubPc-C60\\0,1\C,0,2.274508,3.377063,-4.125801\C,0,2.263053,2.1
 76926,-4.857772\C,0,2.862802,1.0284,-4.364501\C,0,3.499115,1.10211,-3.
 126404\C,0,2.88296,3.455724,-2.882831\C,0,3.508892,2.312701,-2.38637\C
 ,0,4.084811,0.076619,-2.279894\N,0,4.526754,0.727402,-1.16738\H,0,1.78
 5971,4.253872,-4.539092\H,0,1.764636,2.148866,-5.821605\H,0,2.832007,0
 .091627,-4.910642\H,0,2.867978,4.371314,-2.301162\C,0,4.094484,2.01780
 3,-1.089182\N,0,3.961881,2.665579,0.070485\C,0,2.37141,-5.28163,-0.851
 46\C,0,2.37928,-5.322023,0.553886\C,0,2.960177,-4.307426,1.298559\C,0,
 3.56129,-3.252658,0.613032\C,0,2.944894,-4.226267,-1.543315\C,0,3.5539
 56,-3.212454,-0.805311\C,0,4.123471,-1.994237,1.075231\N,0,4.543935,-1
 .346366,-0.047835\H,0,1.895073,-6.087256,-1.401311\H,0,1.909632,-6.158
 443,1.061923\H,0,2.941882,-4.318032,2.383175\H,0,2.914117,-4.173662,-2
 .626437\B,0,5.1408,0.017002,-0.012185\C,0,4.111764,-1.929946,-1.201203
 \N,0,3.95847,-1.25098,-2.339371\C,0,2.310268,1.891396,4.977009\C,0,2.3
 17412,3.133315,4.316477\C,0,2.919605,3.285852,3.077934\C,0,3.541645,2.
 174173,2.510303\C,0,2.910472,0.775822,4.415263\C,0,3.539829,0.923162,3
 .179374\C,0,4.107319,1.952956,1.189853\N,0,4.538028,0.659633,1.187425\
 H,0,1.815817,1.80578,5.939523\H,0,1.828734,3.983267,4.782403\H,0,2.898
 251,4.233292,2.550088\H,0,2.88364,-0.191304,4.905881\C,0,4.113578,-0.0
 52976,2.268586\N,0,3.985222,-1.381555,2.252456\Cl,0,6.997849,0.028252,
 -0.021038\C,0,-3.040435,2.414302,2.462691\C,0,-1.602499,2.559042,2.348
 738\C,0,-1.317712,3.225126,1.092498\C,0,-2.579125,3.4916,0.430081\C,0,
 -3.643551,2.99073,1.277009\C,0,-4.759588,2.397094,0.7083\C,0,-4.861924
 ,2.276173,-0.732561\C,0,-3.84388,2.754375,-1.542479\C,0,-2.677201,3.37
 6098,-0.948296\C,0,-1.518203,2.989521,-1.728605\C,0,-0.313102,2.731881
 ,-1.094866\C,0,-0.21014,2.853292,0.346386\C,0,0.657833,1.79623,0.82168
 \C,0,0.383438,1.159137,2.018985\C,0,-0.767874,1.550192,2.803519\C,0,-1
 .330611,0.352511,3.395754\C,0,-0.519763,-0.775955,2.981629\C,0,0.54028
 1,-0.275164,2.130591\C,0,0.958524,-1.012891,1.036171\C,0,1.246951,-0.3
 48285,-0.21861\C,0,1.093666,1.02452,-0.322668\C,0,0.492613,1.601471,-1
 .506735\C,0,0.06589,0.780129,-2.535968\C,0,-1.193882,1.048251,-3.19917
 9\C,0,-1.968797,2.128027,-2.804771\C,0,-3.406425,1.982747,-2.689277\C,
 0,-4.006731,0.766313,-2.975093\C,0,-5.071419,0.266035,-2.127753\C,0,-5
 .489384,1.004077,-1.03163\C,0,-5.77419,0.338419,0.223871\C,0,-5.628259
 ,-1.035967,0.32864\C,0,-5.190843,-1.808081,-0.817554\C,0,-4.918856,-1.
 171548,-2.018268\C,0,-3.759825,-1.559376,-2.7977\C,0,-3.196179,-0.3618
 36,-3.388879\C,0,-1.821102,-0.224008,-3.49785\C,0,-0.946342,-1.277726,
 -3.021547\C,0,0.220748,-0.656816,-2.427423\C,0,0.794525,-1.208471,-1.2
 94193\C,0,0.230997,-2.404597,-0.703153\C,0,0.333082,-2.284172,0.736882
 \C,0,-0.681738,-2.764824,1.548305\C,0,-1.119309,-1.992349,2.694862\C,0
 ,-2.557217,-2.136201,2.808958\C,0,-3.007702,-2.996679,1.732425\C,0,-1.
 848275,-3.385123,0.953525\C,0,-1.946512,-3.500722,-0.424856\C,0,-0.882
 607,-3.000787,-1.272359\C,0,-1.485845,-2.423243,-2.457141\C,0,-2.92380
 9,-2.566667,-2.342148\C,0,-3.208288,-3.232523,-1.08612\C,0,-4.316989,-
 2.862084,-0.341024\C,0,-4.214166,-2.741082,1.099862\C,0,-5.024586,-1.6
 1255,1.513507\C,0,-4.593829,-0.789569,2.542064\C,0,-3.332409,-1.057029
 ,3.204354\C,0,-2.70555,0.21494,3.504618\C,0,-3.579668,1.268809,3.02724
 1\C,0,-4.746595,0.647874,2.432401\C,0,-5.323472,1.199572,1.299254\\Ver
 sion=ES64L-G09RevD.01\State=1-A\HF=-4018.8714855\RMSD=3.884e-09\PG=C01
  [X(C84H12B1Cl1N6)]\\@


 BRING ME INTO THE COMPANY OF THOSE WHO SEEK TRUTH,
 AND DELIVER ME FROM THOSE WHO HAVE FOUND IT.
 Job cpu time:       1 days 22 hours  5 minutes 54.7 seconds.
 File lengths (MBytes):  RWF=   5716 Int=      0 D2E=      0 Chk=    734 Scr=      1
 Normal termination of Gaussian 09 at Thu Aug  2 14:41:28 2018.
