----- GAMESS execution script 'rungms' -----
This job is running on host boo.mosk.tytlabs.co.jp
under operating system Linux at Thu Jul 21 11:14:35 JST 2016
Available scratch disk space (Kbyte units) at beginning of the job is
Filesystem     1K-blocks      Used Available Use% Mounted on
/dev/sda3      952970396 113983200 790579072  13% /
GAMESS temporary binary files will be written to /home/e1667/work/scr_rm1
GAMESS supplementary output files will be written to /home/e1667/work/userscr_rm1
Copying input file SubPc-C60.inp to your run's scratch directory...
cp SubPc-C60.inp /home/e1667/work/scr_rm1/SubPc-C60.F05
unset echo
/home/e1667/install/gamess/ddikick.x /home/e1667/install/gamess/gamess.00.x SubPc-C60 -ddi 1 1 boo.mosk.tytlabs.co.jp -scr /home/e1667/work/scr_rm1

 Distributed Data Interface kickoff program.
 Initiating 1 compute processes on 1 nodes to run the following command:
 /home/e1667/install/gamess/gamess.00.x SubPc-C60 

          ******************************************************
          *         GAMESS VERSION =  5 DEC 2014 (R1)          *
          *             FROM IOWA STATE UNIVERSITY             *
          * M.W.SCHMIDT, K.K.BALDRIDGE, J.A.BOATZ, S.T.ELBERT, *
          *   M.S.GORDON, J.H.JENSEN, S.KOSEKI, N.MATSUNAGA,   *
          *          K.A.NGUYEN, S.J.SU, T.L.WINDUS,           *
          *       TOGETHER WITH M.DUPUIS, J.A.MONTGOMERY       *
          *         J.COMPUT.CHEM.  14, 1347-1363(1993)        *
          **************** 64 BIT INTEL VERSION ****************

  SINCE 1993, STUDENTS AND POSTDOCS WORKING AT IOWA STATE UNIVERSITY
  AND ALSO IN THEIR VARIOUS JOBS AFTER LEAVING ISU HAVE MADE IMPORTANT
  CONTRIBUTIONS TO THE CODE:
     IVANA ADAMOVIC, CHRISTINE AIKENS, YURI ALEXEEV, POOJA ARORA,
     ANDREY ASADCHEV, ROB BELL, PRADIPTA BANDYOPADHYAY, JONATHAN BENTZ,
     BRETT BODE, KURT BRORSEN, CALEB CARLIN, GALINA CHABAN, WEI CHEN,
     CHEOL HO CHOI, PAUL DAY, ALBERT DEFUSCO, NUWAN DESILVA, TIM DUDLEY,
     DMITRI FEDOROV, GRAHAM FLETCHER, MARK FREITAG, KURT GLAESEMANN,
     DAN KEMP, GRANT MERRILL, NORIYUKI MINEZAWA, JONATHAN MULLIN,
     TAKESHI NAGATA, SEAN NEDD, HEATHER NETZLOFF, BOSILJKA NJEGIC, RYAN OLSON,
     MIKE PAK, SPENCER PRUITT, LUKE ROSKOP, JIM SHOEMAKER, LYUDMILA SLIPCHENKO,
     TONY SMITH, SAROM SOK, JIE SONG, TETSUYA TAKETSUGU, SIMON WEBB,
     PENG XU, SOOHAENG YOO, FEDERICO ZAHARIEV

  ADDITIONAL CODE HAS BEEN PROVIDED BY COLLABORATORS IN OTHER GROUPS:
     IOWA STATE UNIVERSITY:
          JOE IVANIC, AARON WEST, LAIMUTIS BYTAUTAS, KLAUS RUEDENBERG
     UNIVERSITY OF TOKYO: KIMIHIKO HIRAO, TAKAHITO NAKAJIMA,
          TAKAO TSUNEDA, MUNEAKI KAMIYA, SUSUMU YANAGISAWA,
          KIYOSHI YAGI, MAHITO CHIBA, SEIKEN TOKURA, NAOAKI KAWAKAMI
     UNIVERSITY OF AARHUS: FRANK JENSEN
     UNIVERSITY OF IOWA: VISVALDAS KAIRYS, HUI LI
     NATIONAL INST. OF STANDARDS AND TECHNOLOGY: WALT STEVENS, DAVID GARMER
     UNIVERSITY OF PISA: BENEDETTA MENNUCCI, JACOPO TOMASI
     UNIVERSITY OF MEMPHIS: HENRY KURTZ, PRAKASHAN KORAMBATH
     UNIVERSITY OF ALBERTA: TOBY ZENG, MARIUSZ KLOBUKOWSKI
     UNIVERSITY OF NEW ENGLAND: MARK SPACKMAN
     MIE UNIVERSITY: HIROAKI UMEDA
     NAT. INST. OF ADVANCED INDUSTRIAL SCIENCE AND TECHNOLOGY: KAZUO KITAURA
     MICHIGAN STATE UNIVERSITY:
          KAROL KOWALSKI, MARTA WLOCH, JEFFREY GOUR, JESSE LUTZ,
          WEI LI, PIOTR PIECUCH
     UNIVERSITY OF SILESIA: MONIKA MUSIAL, STANISLAW KUCHARSKI
     FACULTES UNIVERSITAIRES NOTRE-DAME DE LA PAIX:
          OLIVIER QUINET, BENOIT CHAMPAGNE
     UNIVERSITY OF CALIFORNIA - SANTA BARBARA: BERNARD KIRTMAN
     INSTITUTE FOR MOLECULAR SCIENCE:
          KAZUYA ISHIMURA, MICHIO KATOUDA, AND SHIGERU NAGASE
     UNIVERSITY OF NOTRE DAME: ANNA POMOGAEVA, DAN CHIPMAN
     KYUSHU UNIVERSITY:
          HARUYUKI NAKANO,
          FENG LONG GU, JACEK KORCHOWIEC, MARCIN MAKOWSKI, AND YURIKO AOKI,
          HIROTOSHI MORI AND EISAKU MIYOSHI
     PENNSYLVANIA STATE UNIVERSITY:
          TZVETELIN IORDANOV, CHET SWALINA, JONATHAN SKONE,
          SHARON HAMMES-SCHIFFER
     WASEDA UNIVERSITY:
          MASATO KOBAYASHI, TOMOKO AKAMA, TSUGUKI TOUMA,
          TAKESHI YOSHIKAWA, YASUHIRO IKABATA, HIROMI NAKAI
     NANJING UNIVERSITY: SHUHUA LI
     UNIVERSITY OF NEBRASKA:
          PEIFENG SU, DEJUN SI, NANDUN THELLAMUREGE, YALI WANG, HUI LI
     UNIVERSITY OF ZURICH: ROBERTO PEVERATI, KIM BALDRIDGE
     N. COPERNICUS UNIVERSITY AND JACKSON STATE UNIVERSITY:
          MARIA BARYSZ
     UNIVERSITY OF COPENHAGEN: CASPER STEINMANN
     TOKYO INSTITUTE OF TECHNOLOGY: HIROYA NAKATA
     NAGOYA UNIVERSITY: YOSHIO NISHIMOTO, STEPHAN IRLE

 EXECUTION OF GAMESS BEGUN Thu Jul 21 11:14:35 2016

            ECHO OF THE FIRST FEW INPUT CARDS -
 INPUT CARD>! ================================================================              
 INPUT CARD>! This file was generated by Gabedit                                            
 INPUT CARD>! ================================================================              
 INPUT CARD> $SYSTEM MWORDS=20 $END                                                         
 INPUT CARD> $CONTRL RUNTYP=Energy $END                                                     
 INPUT CARD> $BASIS GBASIS=RM1 NGAUSS=6 $END                                                
 INPUT CARD> $CONTRL MAXIT=100 $END                                                         
 INPUT CARD> $CONTRL ICHARG=0  MULT=1 $END                                                  
 INPUT CARD> $DATA                                                                          
 INPUT CARD>Molecule specification                                                          
 INPUT CARD>C1                                                                              
 INPUT CARD>C  6.000000 4.440224 -3.973149 -2.505830                                        
 INPUT CARD>C  6.000000 3.926969 -3.536602 -3.726455                                        
 INPUT CARD>C  6.000000 2.569696 -3.640892 -4.021309                                        
 INPUT CARD>C  6.000000 1.744999 -4.200574 -3.065198                                        
 INPUT CARD>C  6.000000 3.616804 -4.531598 -1.531095                                        
 INPUT CARD>C  6.000000 2.270333 -4.647504 -1.815900                                        
 INPUT CARD>C  6.000000 0.301685 -4.420324 -3.049011                                        
 INPUT CARD>N  7.000000 0.076143 -5.204844 -1.907549                                        
 INPUT CARD>H  1.000000 5.512830 -3.876258 -2.308929                                        
 INPUT CARD>H  1.000000 4.604332 -3.103537 -4.469616                                        
 INPUT CARD>H  1.000000 2.163420 -3.296673 -4.976546                                        
 INPUT CARD>H  1.000000 4.015674 -4.872285 -0.571480                                        
 INPUT CARD>C  6.000000 1.157126 -5.148252 -1.014812                                        
 INPUT CARD>N  7.000000 1.049060 -5.293784 0.332537                                         
 INPUT CARD>C  6.000000 -4.518950 -1.336566 -4.385989                                       
 INPUT CARD>C  6.000000 -5.351206 -1.423184 -3.270610                                       
 INPUT CARD>C  6.000000 -5.054122 -2.273804 -2.208590                                       
 INPUT CARD>C  6.000000 -3.907745 -3.038997 -2.298607                                       
 INPUT CARD>C  6.000000 -3.356338 -2.097117 -4.483963                                       
 INPUT CARD>C  6.000000 -3.055988 -2.950345 -3.440135                                       
 INPUT CARD>C  6.000000 -3.307345 -3.986067 -1.363776                                       
 INPUT CARD>N  7.000000 -2.272391 -4.593322 -2.091115                                       
 INPUT CARD>H  1.000000 -4.784715 -0.657502 -5.202612                                       
 INPUT CARD>H  1.000000 -6.257759 -0.810788 -3.228424                                       
 INPUT CARD>H  1.000000 -5.703074 -2.341903 -1.330957                                       
 INPUT CARD>H  1.000000 -2.699829 -2.029414 -5.355987                                       
 INPUT CARD>B  5.000000 -1.313779 -5.562740 -1.451137                                       
 INPUT CARD>C  6.000000 -1.920514 -3.841771 -3.222510                                       
 INPUT CARD>N  7.000000 -0.679014 -3.823118 -3.776541                                       
 INPUT CARD>C  6.000000 -2.129219 -4.165970 4.391085                                        
 INPUT CARD>C  6.000000 -0.783736 -4.516178 4.496219                                        
 INPUT CARD>C  6.000000 -0.048480 -4.912654 3.381715                                        
 INPUT CARD>C  6.000000 -0.699128 -4.956231 2.164194                                        
 INPUT CARD>C  6.000000 -2.793408 -4.198235 3.167269                                        
 INPUT CARD>C  6.000000 -2.076237 -4.597847 2.056609                                        
 INPUT CARD>C  6.000000 -0.217285 -5.291183 0.827319                                        
 INPUT CARD>N  7.000000 -1.376377 -5.355900 0.039359                                        
 INPUT CARD>H  1.000000 -2.676027 -3.859995 5.288878                                        
 INPUT CARD>H  1.000000 -0.294436 -4.479969 5.474941                                        
   20000000 WORDS OF MEMORY AVAILABLE

     BASIS OPTIONS
     -------------
     GBASIS=RM1          IGAUSS=       0      POLAR=NONE    
     NDFUNC=       0     NFFUNC=       0     DIFFSP=       F
     NPFUNC=       0      DIFFS=       F     BASNAM=        


     RUN TITLE
     ---------
 Molecule specification                                                          

 THE POINT GROUP OF THE MOLECULE IS C1      
 THE ORDER OF THE PRINCIPAL AXIS IS     0

 ATOM      ATOMIC                      COORDINATES (BOHR)
           CHARGE         X                   Y                   Z
 C           6.0     8.3908066841       -7.5081629184       -4.7353320718
 C           6.0     7.4208953723       -6.6832087076       -7.0419788556
 C           6.0     4.8560213117       -6.8802882309       -7.5991721220
 C           6.0     3.2975699588       -7.9379338511       -5.7923843181
 C           6.0     6.8347685113       -8.5634785065       -2.8933500112
 C           6.0     4.2903072709       -8.7825090868       -3.4315534211
 C           6.0     0.5701019846       -8.3532011370       -5.7617953235
 N           7.0     0.1438894059       -9.8357289688       -3.6047449182
 H           1.0    10.4177381169       -7.3250654777       -4.3632431351
 H           1.0     8.7009258365       -5.8648345228       -8.4463495103
 H           1.0     4.0882709964       -6.2298086411       -9.4043083053
 H           1.0     7.5885235160       -9.2072835841       -1.0799406075
 C           6.0     2.1866510733       -9.7287855957       -1.9177166091
 N           7.0     1.9824359447      -10.0038011982        0.6284038108
 C           6.0    -8.5395772522       -2.5257435045       -8.2883173952
 C           6.0   -10.1123130439       -2.6894277901       -6.1805567127
 C           6.0    -9.5509056885       -4.2968665098       -4.1736299192
 C           6.0    -7.3845672799       -5.7428716075       -4.3437373835
 C           6.0    -6.3425591422       -3.9629764942       -8.4734614091
 C           6.0    -5.7749799418       -5.5753436192       -6.5009125108
 C           6.0    -6.2499757969       -7.5325743987       -2.5771629486
 N           7.0    -4.2941963270       -8.6801199534       -3.9516343588
 H           1.0    -9.0418002793       -1.2424986164       -9.8315111004
 H           1.0   -11.8254498072       -1.5321671541       -6.1008367322
 H           1.0   -10.7772471477       -4.4255549598       -2.5151440314
 H           1.0    -5.1019370237       -3.8350363756      -10.1213478238
 B           5.0    -2.4826823184      -10.5120543409       -2.7422513006
 C           6.0    -3.6292452156       -7.2598944976       -6.0896608927
 N           7.0    -1.2831504018       -7.2246454387       -7.1366276714
 C           6.0    -4.0236404779       -7.8725417731        8.2979474388
 C           6.0    -1.4810462867       -8.5343389318        8.4966218908
 C           6.0    -0.0916139159       -9.2835699325        6.3905147186
 C           6.0    -1.3211603503       -9.3659185219        4.0897336443
 C           6.0    -5.2787756919       -7.9335137821        5.9852705394
 C           6.0    -3.9235190156       -8.6886709635        3.8864274739
 C           6.0    -0.4106091112       -9.9988860209        1.5634062144
 N           7.0    -2.6009753858      -10.1211834176        0.0743777252
 H           1.0    -5.0569577657       -7.2943328640        9.9945302025
 H           1.0    -0.5564033609       -8.4659138435       10.3461382889
 H           1.0     1.9044034895       -9.7983860936        6.5387183689
 H           1.0    -7.2713915905       -7.4101844054        5.8219131764
 C           6.0    -4.6480550771       -8.8959550071        1.2323375597
 N           7.0    -6.5775276715       -7.7754382032       -0.0405100560
 CL         17.0    -3.2897880672      -13.8712142492       -3.6050850688
 C           6.0     5.2281593813        5.8699537905        6.7679100059
 C           6.0     4.4952801796        3.2292695925        6.8294980655
 C           6.0     5.8275199934        1.9332218108        4.8146363126
 C           6.0     7.3836734395        3.7729475386        3.5077226065
 C           6.0     7.0133041534        6.2059716375        4.7149400387
 C           6.0     6.9513116924        8.3719150934        3.2808099791
 C           6.0     7.2563191360        8.2238172677        0.5606514649
 C           6.0     7.6074396732        5.9174841785       -0.5837023425
 C           6.0     7.6728185232        3.6325465669        0.9292122832
 C           6.0     6.4217575583        1.6447060059       -0.4841232316
 C           6.0     4.9464919434       -0.0990632157        0.7547924643
 C           6.0     4.6414977279        0.0489344545        3.4749736551
 C           6.0     2.0580873451       -0.6426939187        4.0765641439
 C           6.0     0.7952137032        0.5855882891        5.9866727161
 C           6.0     2.0464579714        2.5734836521        7.3998060303
 C           6.0     0.1960023794        4.5224109756        7.9397971210
 C           6.0    -2.1988360264        3.7390855386        6.8603289450
 C           6.0    -1.8284988657        1.3059404972        5.6532815882
 C           6.0    -3.0527087140        0.7605523491        3.4270974472
 C           6.0    -1.7204934666       -0.5352818936        1.4122262457
 C           6.0     0.7665635675       -1.2182364244        1.7282829171
 C           6.0     2.5516799937       -0.8822280260       -0.3247172856
 C           6.0     1.7567232933        0.1192247023       -2.5867457491
 C           6.0     3.3129296517        1.9587009863       -3.8937992950
 C           6.0     5.5831122828        2.7011138556       -2.8705032240
 C           6.0     6.3158743215        5.3418641940       -2.9320194741
 C           6.0     4.7404513395        7.1025426838       -4.0136986294
 C           6.0     4.3700631562        9.5355762313       -2.8065019842
 C           6.0     5.5943769394       10.0812440589       -0.5804784700
 C           6.0     4.2622127146       11.3773126276        1.4344437541
 C           6.0     1.7751159963       12.0601670030        1.1183833032
 C           6.0     0.4835241885       11.4845054445       -1.2299678434
 C           6.0     1.7462976750       10.2559794621       -3.1399441348
 C           6.0     0.4951063191        8.2681672470       -4.5532021708
 C           6.0     2.3456053747        6.3192531516       -5.0932612917
 C           6.0     1.6509175352        3.8160824240       -5.0349783628
 C           6.0    -0.9324682811        3.1243652337       -4.4332820494
 C           6.0    -0.8670251804        0.8396241536       -2.9201671127
 C           6.0    -2.5591859853        0.5210352493       -0.9742179974
 C           6.0    -4.4096907102        2.4698340714       -0.4341966710
 C           6.0    -4.7148096476        2.6178449697        2.2859807404
 C           6.0    -5.0658848313        4.9241799487        3.4302986430
 C           6.0    -3.7742023166        5.4997904845        5.7785930979
 C           6.0    -3.0413646889        8.1404879106        5.7170201560
 C           6.0    -3.8800175233        9.1969070987        3.3306061486
 C           6.0    -5.1311975409        7.2091100014        1.9173273255
 C           6.0    -4.8420600161        7.0687109194       -0.6611829978
 C           6.0    -4.4717984445        4.6357057177       -1.8684854676
 C           6.0    -2.6866857977        4.9717273442       -3.9214403170
 C           6.0    -1.9537347864        7.6124228806       -3.9829565671
 C           6.0    -3.2858574372        8.9084101910       -1.9680248943
 C           6.0    -2.0998276128       10.7927032166       -0.6283357806
 C           6.0    -2.4048520639       10.9408067114        2.0918227335
 C           6.0    -0.0100079888       11.7241699429        3.1713664985
 C           6.0     0.7849506013       10.7227833550        5.4334686613
 C           6.0    -0.7712595365        8.8830292813        6.7403218962
 C           6.0     0.8907185649        7.0256062696        7.8813838010
 C           6.0     3.4740760353        7.7173952695        7.2798046506
 C           6.0     3.4087179723       10.0023782345        5.7668900248
 C           6.0     5.1008579902       10.3208953292        3.8208558718



 PLEASE NOTE:
 SEMI-EMPIRICAL CALCULATIONS ACTUALLY USE VALENCE-ONLY SLATER TYPE ORBITALS.
 FOR PLOTTING PURPOSES, STO-NG EXPANSIONS CAN APPROXIMATE THE STO FUNCTIONS.
 THE GTO BASIS LISTED BELOW USES N=  6 EXPANSIONS OF THE VALENCE STO BASIS.



     ATOMIC BASIS SET
     ----------------
 THE CONTRACTED PRIMITIVE FUNCTIONS HAVE BEEN UNNORMALIZED
 THE CONTRACTED BASIS FUNCTIONS ARE NOW NORMALIZED TO UNITY

  SHELL TYPE  PRIMITIVE        EXPONENT          CONTRACTION COEFFICIENT(S)

 C         
 
      1   S       1            94.7710456   -0.004151277819
      1   S       2            17.3800462   -0.020670241480
      1   S       3             4.8841679   -0.051503033370
      1   S       4             0.6984469    0.334627117400
      1   S       5             0.3169981    0.562106130100
      1   S       6             0.1511746    0.171299469700
 
      2   P       7            18.3494739    0.007924233646
      2   P       8             4.7851696    0.051441048250
      2   P       9             1.7121793    0.189840006000
      2   P      10             0.7157237    0.404986319100
      2   P      11             0.3272776    0.401236286100
      2   P      12             0.1547253    0.105185518900

 C         
 
      3   S      13            94.7710456   -0.004151277819
      3   S      14            17.3800462   -0.020670241480
      3   S      15             4.8841679   -0.051503033370
      3   S      16             0.6984469    0.334627117400
      3   S      17             0.3169981    0.562106130100
      3   S      18             0.1511746    0.171299469700
 
      4   P      19            18.3494739    0.007924233646
      4   P      20             4.7851696    0.051441048250
      4   P      21             1.7121793    0.189840006000
      4   P      22             0.7157237    0.404986319100
      4   P      23             0.3272776    0.401236286100
      4   P      24             0.1547253    0.105185518900

 C         
 
      5   S      25            94.7710456   -0.004151277819
      5   S      26            17.3800462   -0.020670241480
      5   S      27             4.8841679   -0.051503033370
      5   S      28             0.6984469    0.334627117400
      5   S      29             0.3169981    0.562106130100
      5   S      30             0.1511746    0.171299469700
 
      6   P      31            18.3494739    0.007924233646
      6   P      32             4.7851696    0.051441048250
      6   P      33             1.7121793    0.189840006000
      6   P      34             0.7157237    0.404986319100
      6   P      35             0.3272776    0.401236286100
      6   P      36             0.1547253    0.105185518900

 C         
 
      7   S      37            94.7710456   -0.004151277819
      7   S      38            17.3800462   -0.020670241480
      7   S      39             4.8841679   -0.051503033370
      7   S      40             0.6984469    0.334627117400
      7   S      41             0.3169981    0.562106130100
      7   S      42             0.1511746    0.171299469700
 
      8   P      43            18.3494739    0.007924233646
      8   P      44             4.7851696    0.051441048250
      8   P      45             1.7121793    0.189840006000
      8   P      46             0.7157237    0.404986319100
      8   P      47             0.3272776    0.401236286100
      8   P      48             0.1547253    0.105185518900

 C         
 
      9   S      49            94.7710456   -0.004151277819
      9   S      50            17.3800462   -0.020670241480
      9   S      51             4.8841679   -0.051503033370
      9   S      52             0.6984469    0.334627117400
      9   S      53             0.3169981    0.562106130100
      9   S      54             0.1511746    0.171299469700
 
     10   P      55            18.3494739    0.007924233646
     10   P      56             4.7851696    0.051441048250
     10   P      57             1.7121793    0.189840006000
     10   P      58             0.7157237    0.404986319100
     10   P      59             0.3272776    0.401236286100
     10   P      60             0.1547253    0.105185518900

 C         
 
     11   S      61            94.7710456   -0.004151277819
     11   S      62            17.3800462   -0.020670241480
     11   S      63             4.8841679   -0.051503033370
     11   S      64             0.6984469    0.334627117400
     11   S      65             0.3169981    0.562106130100
     11   S      66             0.1511746    0.171299469700
 
     12   P      67            18.3494739    0.007924233646
     12   P      68             4.7851696    0.051441048250
     12   P      69             1.7121793    0.189840006000
     12   P      70             0.7157237    0.404986319100
     12   P      71             0.3272776    0.401236286100
     12   P      72             0.1547253    0.105185518900

 C         
 
     13   S      73            94.7710456   -0.004151277819
     13   S      74            17.3800462   -0.020670241480
     13   S      75             4.8841679   -0.051503033370
     13   S      76             0.6984469    0.334627117400
     13   S      77             0.3169981    0.562106130100
     13   S      78             0.1511746    0.171299469700
 
     14   P      79            18.3494739    0.007924233646
     14   P      80             4.7851696    0.051441048250
     14   P      81             1.7121793    0.189840006000
     14   P      82             0.7157237    0.404986319100
     14   P      83             0.3272776    0.401236286100
     14   P      84             0.1547253    0.105185518900

 N         
 
     15   S      85           156.0910110   -0.004151277819
     15   S      86            28.6255044   -0.020670241480
     15   S      87             8.0443843   -0.051503033370
     15   S      88             1.1503648    0.334627117400
     15   S      89             0.5221063    0.562106130100
     15   S      90             0.2489895    0.171299469700
 
     16   P      91            22.9624927    0.007924233646
     16   P      92             5.9881511    0.051441048250
     16   P      93             2.1426175    0.189840006000
     16   P      94             0.8956551    0.404986319100
     16   P      95             0.4095545    0.401236286100
     16   P      96             0.1936229    0.105185518900

 H         
 
     17   S      97            27.0809635    0.009163596280
     17   S      98             4.9652650    0.049361492940
     17   S      99             1.3891022    0.168538304900
     17   S     100             0.4771941    0.370562799700
     17   S     101             0.1853084    0.416491529800
     17   S     102             0.0763202    0.130334084100

 H         
 
     18   S     103            27.0809635    0.009163596280
     18   S     104             4.9652650    0.049361492940
     18   S     105             1.3891022    0.168538304900
     18   S     106             0.4771941    0.370562799700
     18   S     107             0.1853084    0.416491529800
     18   S     108             0.0763202    0.130334084100

 H         
 
     19   S     109            27.0809635    0.009163596280
     19   S     110             4.9652650    0.049361492940
     19   S     111             1.3891022    0.168538304900
     19   S     112             0.4771941    0.370562799700
     19   S     113             0.1853084    0.416491529800
     19   S     114             0.0763202    0.130334084100

 H         
 
     20   S     115            27.0809635    0.009163596280
     20   S     116             4.9652650    0.049361492940
     20   S     117             1.3891022    0.168538304900
     20   S     118             0.4771941    0.370562799700
     20   S     119             0.1853084    0.416491529800
     20   S     120             0.0763202    0.130334084100

 C         
 
     21   S     121            94.7710456   -0.004151277819
     21   S     122            17.3800462   -0.020670241480
     21   S     123             4.8841679   -0.051503033370
     21   S     124             0.6984469    0.334627117400
     21   S     125             0.3169981    0.562106130100
     21   S     126             0.1511746    0.171299469700
 
     22   P     127            18.3494739    0.007924233646
     22   P     128             4.7851696    0.051441048250
     22   P     129             1.7121793    0.189840006000
     22   P     130             0.7157237    0.404986319100
     22   P     131             0.3272776    0.401236286100
     22   P     132             0.1547253    0.105185518900

 N         
 
     23   S     133           156.0910110   -0.004151277819
     23   S     134            28.6255044   -0.020670241480
     23   S     135             8.0443843   -0.051503033370
     23   S     136             1.1503648    0.334627117400
     23   S     137             0.5221063    0.562106130100
     23   S     138             0.2489895    0.171299469700
 
     24   P     139            22.9624927    0.007924233646
     24   P     140             5.9881511    0.051441048250
     24   P     141             2.1426175    0.189840006000
     24   P     142             0.8956551    0.404986319100
     24   P     143             0.4095545    0.401236286100
     24   P     144             0.1936229    0.105185518900

 C         
 
     25   S     145            94.7710456   -0.004151277819
     25   S     146            17.3800462   -0.020670241480
     25   S     147             4.8841679   -0.051503033370
     25   S     148             0.6984469    0.334627117400
     25   S     149             0.3169981    0.562106130100
     25   S     150             0.1511746    0.171299469700
 
     26   P     151            18.3494739    0.007924233646
     26   P     152             4.7851696    0.051441048250
     26   P     153             1.7121793    0.189840006000
     26   P     154             0.7157237    0.404986319100
     26   P     155             0.3272776    0.401236286100
     26   P     156             0.1547253    0.105185518900

 C         
 
     27   S     157            94.7710456   -0.004151277819
     27   S     158            17.3800462   -0.020670241480
     27   S     159             4.8841679   -0.051503033370
     27   S     160             0.6984469    0.334627117400
     27   S     161             0.3169981    0.562106130100
     27   S     162             0.1511746    0.171299469700
 
     28   P     163            18.3494739    0.007924233646
     28   P     164             4.7851696    0.051441048250
     28   P     165             1.7121793    0.189840006000
     28   P     166             0.7157237    0.404986319100
     28   P     167             0.3272776    0.401236286100
     28   P     168             0.1547253    0.105185518900

 C         
 
     29   S     169            94.7710456   -0.004151277819
     29   S     170            17.3800462   -0.020670241480
     29   S     171             4.8841679   -0.051503033370
     29   S     172             0.6984469    0.334627117400
     29   S     173             0.3169981    0.562106130100
     29   S     174             0.1511746    0.171299469700
 
     30   P     175            18.3494739    0.007924233646
     30   P     176             4.7851696    0.051441048250
     30   P     177             1.7121793    0.189840006000
     30   P     178             0.7157237    0.404986319100
     30   P     179             0.3272776    0.401236286100
     30   P     180             0.1547253    0.105185518900

 C         
 
     31   S     181            94.7710456   -0.004151277819
     31   S     182            17.3800462   -0.020670241480
     31   S     183             4.8841679   -0.051503033370
     31   S     184             0.6984469    0.334627117400
     31   S     185             0.3169981    0.562106130100
     31   S     186             0.1511746    0.171299469700
 
     32   P     187            18.3494739    0.007924233646
     32   P     188             4.7851696    0.051441048250
     32   P     189             1.7121793    0.189840006000
     32   P     190             0.7157237    0.404986319100
     32   P     191             0.3272776    0.401236286100
     32   P     192             0.1547253    0.105185518900

 C         
 
     33   S     193            94.7710456   -0.004151277819
     33   S     194            17.3800462   -0.020670241480
     33   S     195             4.8841679   -0.051503033370
     33   S     196             0.6984469    0.334627117400
     33   S     197             0.3169981    0.562106130100
     33   S     198             0.1511746    0.171299469700
 
     34   P     199            18.3494739    0.007924233646
     34   P     200             4.7851696    0.051441048250
     34   P     201             1.7121793    0.189840006000
     34   P     202             0.7157237    0.404986319100
     34   P     203             0.3272776    0.401236286100
     34   P     204             0.1547253    0.105185518900

 C         
 
     35   S     205            94.7710456   -0.004151277819
     35   S     206            17.3800462   -0.020670241480
     35   S     207             4.8841679   -0.051503033370
     35   S     208             0.6984469    0.334627117400
     35   S     209             0.3169981    0.562106130100
     35   S     210             0.1511746    0.171299469700
 
     36   P     211            18.3494739    0.007924233646
     36   P     212             4.7851696    0.051441048250
     36   P     213             1.7121793    0.189840006000
     36   P     214             0.7157237    0.404986319100
     36   P     215             0.3272776    0.401236286100
     36   P     216             0.1547253    0.105185518900

 C         
 
     37   S     217            94.7710456   -0.004151277819
     37   S     218            17.3800462   -0.020670241480
     37   S     219             4.8841679   -0.051503033370
     37   S     220             0.6984469    0.334627117400
     37   S     221             0.3169981    0.562106130100
     37   S     222             0.1511746    0.171299469700
 
     38   P     223            18.3494739    0.007924233646
     38   P     224             4.7851696    0.051441048250
     38   P     225             1.7121793    0.189840006000
     38   P     226             0.7157237    0.404986319100
     38   P     227             0.3272776    0.401236286100
     38   P     228             0.1547253    0.105185518900

 N         
 
     39   S     229           156.0910110   -0.004151277819
     39   S     230            28.6255044   -0.020670241480
     39   S     231             8.0443843   -0.051503033370
     39   S     232             1.1503648    0.334627117400
     39   S     233             0.5221063    0.562106130100
     39   S     234             0.2489895    0.171299469700
 
     40   P     235            22.9624927    0.007924233646
     40   P     236             5.9881511    0.051441048250
     40   P     237             2.1426175    0.189840006000
     40   P     238             0.8956551    0.404986319100
     40   P     239             0.4095545    0.401236286100
     40   P     240             0.1936229    0.105185518900

 H         
 
     41   S     241            27.0809635    0.009163596280
     41   S     242             4.9652650    0.049361492940
     41   S     243             1.3891022    0.168538304900
     41   S     244             0.4771941    0.370562799700
     41   S     245             0.1853084    0.416491529800
     41   S     246             0.0763202    0.130334084100

 H         
 
     42   S     247            27.0809635    0.009163596280
     42   S     248             4.9652650    0.049361492940
     42   S     249             1.3891022    0.168538304900
     42   S     250             0.4771941    0.370562799700
     42   S     251             0.1853084    0.416491529800
     42   S     252             0.0763202    0.130334084100

 H         
 
     43   S     253            27.0809635    0.009163596280
     43   S     254             4.9652650    0.049361492940
     43   S     255             1.3891022    0.168538304900
     43   S     256             0.4771941    0.370562799700
     43   S     257             0.1853084    0.416491529800
     43   S     258             0.0763202    0.130334084100

 H         
 
     44   S     259            27.0809635    0.009163596280
     44   S     260             4.9652650    0.049361492940
     44   S     261             1.3891022    0.168538304900
     44   S     262             0.4771941    0.370562799700
     44   S     263             0.1853084    0.416491529800
     44   S     264             0.0763202    0.130334084100

 B         
 
     45   S     265            71.9146217   -0.004151277819
     45   S     266            13.1884105   -0.020670241480
     45   S     267             3.7062279   -0.051503033370
     45   S     268             0.5299988    0.334627117400
     45   S     269             0.2405461    0.562106130100
     45   S     270             0.1147151    0.171299469700
 
     46   P     271            14.1966893    0.007924233646
     46   P     272             3.7022079    0.051441048250
     46   P     273             1.3246853    0.189840006000
     46   P     274             0.5537438    0.404986319100
     46   P     275             0.2532094    0.401236286100
     46   P     276             0.1197085    0.105185518900

 C         
 
     47   S     277            94.7710456   -0.004151277819
     47   S     278            17.3800462   -0.020670241480
     47   S     279             4.8841679   -0.051503033370
     47   S     280             0.6984469    0.334627117400
     47   S     281             0.3169981    0.562106130100
     47   S     282             0.1511746    0.171299469700
 
     48   P     283            18.3494739    0.007924233646
     48   P     284             4.7851696    0.051441048250
     48   P     285             1.7121793    0.189840006000
     48   P     286             0.7157237    0.404986319100
     48   P     287             0.3272776    0.401236286100
     48   P     288             0.1547253    0.105185518900

 N         
 
     49   S     289           156.0910110   -0.004151277819
     49   S     290            28.6255044   -0.020670241480
     49   S     291             8.0443843   -0.051503033370
     49   S     292             1.1503648    0.334627117400
     49   S     293             0.5221063    0.562106130100
     49   S     294             0.2489895    0.171299469700
 
     50   P     295            22.9624927    0.007924233646
     50   P     296             5.9881511    0.051441048250
     50   P     297             2.1426175    0.189840006000
     50   P     298             0.8956551    0.404986319100
     50   P     299             0.4095545    0.401236286100
     50   P     300             0.1936229    0.105185518900

 C         
 
     51   S     301            94.7710456   -0.004151277819
     51   S     302            17.3800462   -0.020670241480
     51   S     303             4.8841679   -0.051503033370
     51   S     304             0.6984469    0.334627117400
     51   S     305             0.3169981    0.562106130100
     51   S     306             0.1511746    0.171299469700
 
     52   P     307            18.3494739    0.007924233646
     52   P     308             4.7851696    0.051441048250
     52   P     309             1.7121793    0.189840006000
     52   P     310             0.7157237    0.404986319100
     52   P     311             0.3272776    0.401236286100
     52   P     312             0.1547253    0.105185518900

 C         
 
     53   S     313            94.7710456   -0.004151277819
     53   S     314            17.3800462   -0.020670241480
     53   S     315             4.8841679   -0.051503033370
     53   S     316             0.6984469    0.334627117400
     53   S     317             0.3169981    0.562106130100
     53   S     318             0.1511746    0.171299469700
 
     54   P     319            18.3494739    0.007924233646
     54   P     320             4.7851696    0.051441048250
     54   P     321             1.7121793    0.189840006000
     54   P     322             0.7157237    0.404986319100
     54   P     323             0.3272776    0.401236286100
     54   P     324             0.1547253    0.105185518900

 C         
 
     55   S     325            94.7710456   -0.004151277819
     55   S     326            17.3800462   -0.020670241480
     55   S     327             4.8841679   -0.051503033370
     55   S     328             0.6984469    0.334627117400
     55   S     329             0.3169981    0.562106130100
     55   S     330             0.1511746    0.171299469700
 
     56   P     331            18.3494739    0.007924233646
     56   P     332             4.7851696    0.051441048250
     56   P     333             1.7121793    0.189840006000
     56   P     334             0.7157237    0.404986319100
     56   P     335             0.3272776    0.401236286100
     56   P     336             0.1547253    0.105185518900

 C         
 
     57   S     337            94.7710456   -0.004151277819
     57   S     338            17.3800462   -0.020670241480
     57   S     339             4.8841679   -0.051503033370
     57   S     340             0.6984469    0.334627117400
     57   S     341             0.3169981    0.562106130100
     57   S     342             0.1511746    0.171299469700
 
     58   P     343            18.3494739    0.007924233646
     58   P     344             4.7851696    0.051441048250
     58   P     345             1.7121793    0.189840006000
     58   P     346             0.7157237    0.404986319100
     58   P     347             0.3272776    0.401236286100
     58   P     348             0.1547253    0.105185518900

 C         
 
     59   S     349            94.7710456   -0.004151277819
     59   S     350            17.3800462   -0.020670241480
     59   S     351             4.8841679   -0.051503033370
     59   S     352             0.6984469    0.334627117400
     59   S     353             0.3169981    0.562106130100
     59   S     354             0.1511746    0.171299469700
 
     60   P     355            18.3494739    0.007924233646
     60   P     356             4.7851696    0.051441048250
     60   P     357             1.7121793    0.189840006000
     60   P     358             0.7157237    0.404986319100
     60   P     359             0.3272776    0.401236286100
     60   P     360             0.1547253    0.105185518900

 C         
 
     61   S     361            94.7710456   -0.004151277819
     61   S     362            17.3800462   -0.020670241480
     61   S     363             4.8841679   -0.051503033370
     61   S     364             0.6984469    0.334627117400
     61   S     365             0.3169981    0.562106130100
     61   S     366             0.1511746    0.171299469700
 
     62   P     367            18.3494739    0.007924233646
     62   P     368             4.7851696    0.051441048250
     62   P     369             1.7121793    0.189840006000
     62   P     370             0.7157237    0.404986319100
     62   P     371             0.3272776    0.401236286100
     62   P     372             0.1547253    0.105185518900

 C         
 
     63   S     373            94.7710456   -0.004151277819
     63   S     374            17.3800462   -0.020670241480
     63   S     375             4.8841679   -0.051503033370
     63   S     376             0.6984469    0.334627117400
     63   S     377             0.3169981    0.562106130100
     63   S     378             0.1511746    0.171299469700
 
     64   P     379            18.3494739    0.007924233646
     64   P     380             4.7851696    0.051441048250
     64   P     381             1.7121793    0.189840006000
     64   P     382             0.7157237    0.404986319100
     64   P     383             0.3272776    0.401236286100
     64   P     384             0.1547253    0.105185518900

 N         
 
     65   S     385           156.0910110   -0.004151277819
     65   S     386            28.6255044   -0.020670241480
     65   S     387             8.0443843   -0.051503033370
     65   S     388             1.1503648    0.334627117400
     65   S     389             0.5221063    0.562106130100
     65   S     390             0.2489895    0.171299469700
 
     66   P     391            22.9624927    0.007924233646
     66   P     392             5.9881511    0.051441048250
     66   P     393             2.1426175    0.189840006000
     66   P     394             0.8956551    0.404986319100
     66   P     395             0.4095545    0.401236286100
     66   P     396             0.1936229    0.105185518900

 H         
 
     67   S     397            27.0809635    0.009163596280
     67   S     398             4.9652650    0.049361492940
     67   S     399             1.3891022    0.168538304900
     67   S     400             0.4771941    0.370562799700
     67   S     401             0.1853084    0.416491529800
     67   S     402             0.0763202    0.130334084100

 H         
 
     68   S     403            27.0809635    0.009163596280
     68   S     404             4.9652650    0.049361492940
     68   S     405             1.3891022    0.168538304900
     68   S     406             0.4771941    0.370562799700
     68   S     407             0.1853084    0.416491529800
     68   S     408             0.0763202    0.130334084100

 H         
 
     69   S     409            27.0809635    0.009163596280
     69   S     410             4.9652650    0.049361492940
     69   S     411             1.3891022    0.168538304900
     69   S     412             0.4771941    0.370562799700
     69   S     413             0.1853084    0.416491529800
     69   S     414             0.0763202    0.130334084100

 H         
 
     70   S     415            27.0809635    0.009163596280
     70   S     416             4.9652650    0.049361492940
     70   S     417             1.3891022    0.168538304900
     70   S     418             0.4771941    0.370562799700
     70   S     419             0.1853084    0.416491529800
     70   S     420             0.0763202    0.130334084100

 C         
 
     71   S     421            94.7710456   -0.004151277819
     71   S     422            17.3800462   -0.020670241480
     71   S     423             4.8841679   -0.051503033370
     71   S     424             0.6984469    0.334627117400
     71   S     425             0.3169981    0.562106130100
     71   S     426             0.1511746    0.171299469700
 
     72   P     427            18.3494739    0.007924233646
     72   P     428             4.7851696    0.051441048250
     72   P     429             1.7121793    0.189840006000
     72   P     430             0.7157237    0.404986319100
     72   P     431             0.3272776    0.401236286100
     72   P     432             0.1547253    0.105185518900

 N         
 
     73   S     433           156.0910110   -0.004151277819
     73   S     434            28.6255044   -0.020670241480
     73   S     435             8.0443843   -0.051503033370
     73   S     436             1.1503648    0.334627117400
     73   S     437             0.5221063    0.562106130100
     73   S     438             0.2489895    0.171299469700
 
     74   P     439            22.9624927    0.007924233646
     74   P     440             5.9881511    0.051441048250
     74   P     441             2.1426175    0.189840006000
     74   P     442             0.8956551    0.404986319100
     74   P     443             0.4095545    0.401236286100
     74   P     444             0.1936229    0.105185518900

 CL        
 
     75   S     445            48.8910285   -0.006775596947
     75   S     446            13.7434452   -0.056393257790
     75   S     447             5.3675787   -0.158785608600
     75   S     448             1.2901081    0.553452765100
     75   S     449             0.7166094    0.501535102000
     75   S     450             0.4070092    0.072236336740
 
     76   P     451            18.2530606   -0.003329929840
     76   P     452             4.8195338   -0.014194883400
     76   P     453             0.8082125    0.163939577000
     76   P     454             0.4068109    0.448535825600
     76   P     455             0.2184199    0.390881305000
     76   P     456             0.1191748    0.074114562320

 C         
 
     77   S     457            94.7710456   -0.004151277819
     77   S     458            17.3800462   -0.020670241480
     77   S     459             4.8841679   -0.051503033370
     77   S     460             0.6984469    0.334627117400
     77   S     461             0.3169981    0.562106130100
     77   S     462             0.1511746    0.171299469700
 
     78   P     463            18.3494739    0.007924233646
     78   P     464             4.7851696    0.051441048250
     78   P     465             1.7121793    0.189840006000
     78   P     466             0.7157237    0.404986319100
     78   P     467             0.3272776    0.401236286100
     78   P     468             0.1547253    0.105185518900

 C         
 
     79   S     469            94.7710456   -0.004151277819
     79   S     470            17.3800462   -0.020670241480
     79   S     471             4.8841679   -0.051503033370
     79   S     472             0.6984469    0.334627117400
     79   S     473             0.3169981    0.562106130100
     79   S     474             0.1511746    0.171299469700
 
     80   P     475            18.3494739    0.007924233646
     80   P     476             4.7851696    0.051441048250
     80   P     477             1.7121793    0.189840006000
     80   P     478             0.7157237    0.404986319100
     80   P     479             0.3272776    0.401236286100
     80   P     480             0.1547253    0.105185518900

 C         
 
     81   S     481            94.7710456   -0.004151277819
     81   S     482            17.3800462   -0.020670241480
     81   S     483             4.8841679   -0.051503033370
     81   S     484             0.6984469    0.334627117400
     81   S     485             0.3169981    0.562106130100
     81   S     486             0.1511746    0.171299469700
 
     82   P     487            18.3494739    0.007924233646
     82   P     488             4.7851696    0.051441048250
     82   P     489             1.7121793    0.189840006000
     82   P     490             0.7157237    0.404986319100
     82   P     491             0.3272776    0.401236286100
     82   P     492             0.1547253    0.105185518900

 C         
 
     83   S     493            94.7710456   -0.004151277819
     83   S     494            17.3800462   -0.020670241480
     83   S     495             4.8841679   -0.051503033370
     83   S     496             0.6984469    0.334627117400
     83   S     497             0.3169981    0.562106130100
     83   S     498             0.1511746    0.171299469700
 
     84   P     499            18.3494739    0.007924233646
     84   P     500             4.7851696    0.051441048250
     84   P     501             1.7121793    0.189840006000
     84   P     502             0.7157237    0.404986319100
     84   P     503             0.3272776    0.401236286100
     84   P     504             0.1547253    0.105185518900

 C         
 
     85   S     505            94.7710456   -0.004151277819
     85   S     506            17.3800462   -0.020670241480
     85   S     507             4.8841679   -0.051503033370
     85   S     508             0.6984469    0.334627117400
     85   S     509             0.3169981    0.562106130100
     85   S     510             0.1511746    0.171299469700
 
     86   P     511            18.3494739    0.007924233646
     86   P     512             4.7851696    0.051441048250
     86   P     513             1.7121793    0.189840006000
     86   P     514             0.7157237    0.404986319100
     86   P     515             0.3272776    0.401236286100
     86   P     516             0.1547253    0.105185518900

 C         
 
     87   S     517            94.7710456   -0.004151277819
     87   S     518            17.3800462   -0.020670241480
     87   S     519             4.8841679   -0.051503033370
     87   S     520             0.6984469    0.334627117400
     87   S     521             0.3169981    0.562106130100
     87   S     522             0.1511746    0.171299469700
 
     88   P     523            18.3494739    0.007924233646
     88   P     524             4.7851696    0.051441048250
     88   P     525             1.7121793    0.189840006000
     88   P     526             0.7157237    0.404986319100
     88   P     527             0.3272776    0.401236286100
     88   P     528             0.1547253    0.105185518900

 C         
 
     89   S     529            94.7710456   -0.004151277819
     89   S     530            17.3800462   -0.020670241480
     89   S     531             4.8841679   -0.051503033370
     89   S     532             0.6984469    0.334627117400
     89   S     533             0.3169981    0.562106130100
     89   S     534             0.1511746    0.171299469700
 
     90   P     535            18.3494739    0.007924233646
     90   P     536             4.7851696    0.051441048250
     90   P     537             1.7121793    0.189840006000
     90   P     538             0.7157237    0.404986319100
     90   P     539             0.3272776    0.401236286100
     90   P     540             0.1547253    0.105185518900

 C         
 
     91   S     541            94.7710456   -0.004151277819
     91   S     542            17.3800462   -0.020670241480
     91   S     543             4.8841679   -0.051503033370
     91   S     544             0.6984469    0.334627117400
     91   S     545             0.3169981    0.562106130100
     91   S     546             0.1511746    0.171299469700
 
     92   P     547            18.3494739    0.007924233646
     92   P     548             4.7851696    0.051441048250
     92   P     549             1.7121793    0.189840006000
     92   P     550             0.7157237    0.404986319100
     92   P     551             0.3272776    0.401236286100
     92   P     552             0.1547253    0.105185518900

 C         
 
     93   S     553            94.7710456   -0.004151277819
     93   S     554            17.3800462   -0.020670241480
     93   S     555             4.8841679   -0.051503033370
     93   S     556             0.6984469    0.334627117400
     93   S     557             0.3169981    0.562106130100
     93   S     558             0.1511746    0.171299469700
 
     94   P     559            18.3494739    0.007924233646
     94   P     560             4.7851696    0.051441048250
     94   P     561             1.7121793    0.189840006000
     94   P     562             0.7157237    0.404986319100
     94   P     563             0.3272776    0.401236286100
     94   P     564             0.1547253    0.105185518900

 C         
 
     95   S     565            94.7710456   -0.004151277819
     95   S     566            17.3800462   -0.020670241480
     95   S     567             4.8841679   -0.051503033370
     95   S     568             0.6984469    0.334627117400
     95   S     569             0.3169981    0.562106130100
     95   S     570             0.1511746    0.171299469700
 
     96   P     571            18.3494739    0.007924233646
     96   P     572             4.7851696    0.051441048250
     96   P     573             1.7121793    0.189840006000
     96   P     574             0.7157237    0.404986319100
     96   P     575             0.3272776    0.401236286100
     96   P     576             0.1547253    0.105185518900

 C         
 
     97   S     577            94.7710456   -0.004151277819
     97   S     578            17.3800462   -0.020670241480
     97   S     579             4.8841679   -0.051503033370
     97   S     580             0.6984469    0.334627117400
     97   S     581             0.3169981    0.562106130100
     97   S     582             0.1511746    0.171299469700
 
     98   P     583            18.3494739    0.007924233646
     98   P     584             4.7851696    0.051441048250
     98   P     585             1.7121793    0.189840006000
     98   P     586             0.7157237    0.404986319100
     98   P     587             0.3272776    0.401236286100
     98   P     588             0.1547253    0.105185518900

 C         
 
     99   S     589            94.7710456   -0.004151277819
     99   S     590            17.3800462   -0.020670241480
     99   S     591             4.8841679   -0.051503033370
     99   S     592             0.6984469    0.334627117400
     99   S     593             0.3169981    0.562106130100
     99   S     594             0.1511746    0.171299469700
 
    100   P     595            18.3494739    0.007924233646
    100   P     596             4.7851696    0.051441048250
    100   P     597             1.7121793    0.189840006000
    100   P     598             0.7157237    0.404986319100
    100   P     599             0.3272776    0.401236286100
    100   P     600             0.1547253    0.105185518900

 C         
 
    101   S     601            94.7710456   -0.004151277819
    101   S     602            17.3800462   -0.020670241480
    101   S     603             4.8841679   -0.051503033370
    101   S     604             0.6984469    0.334627117400
    101   S     605             0.3169981    0.562106130100
    101   S     606             0.1511746    0.171299469700
 
    102   P     607            18.3494739    0.007924233646
    102   P     608             4.7851696    0.051441048250
    102   P     609             1.7121793    0.189840006000
    102   P     610             0.7157237    0.404986319100
    102   P     611             0.3272776    0.401236286100
    102   P     612             0.1547253    0.105185518900

 C         
 
    103   S     613            94.7710456   -0.004151277819
    103   S     614            17.3800462   -0.020670241480
    103   S     615             4.8841679   -0.051503033370
    103   S     616             0.6984469    0.334627117400
    103   S     617             0.3169981    0.562106130100
    103   S     618             0.1511746    0.171299469700
 
    104   P     619            18.3494739    0.007924233646
    104   P     620             4.7851696    0.051441048250
    104   P     621             1.7121793    0.189840006000
    104   P     622             0.7157237    0.404986319100
    104   P     623             0.3272776    0.401236286100
    104   P     624             0.1547253    0.105185518900

 C         
 
    105   S     625            94.7710456   -0.004151277819
    105   S     626            17.3800462   -0.020670241480
    105   S     627             4.8841679   -0.051503033370
    105   S     628             0.6984469    0.334627117400
    105   S     629             0.3169981    0.562106130100
    105   S     630             0.1511746    0.171299469700
 
    106   P     631            18.3494739    0.007924233646
    106   P     632             4.7851696    0.051441048250
    106   P     633             1.7121793    0.189840006000
    106   P     634             0.7157237    0.404986319100
    106   P     635             0.3272776    0.401236286100
    106   P     636             0.1547253    0.105185518900

 C         
 
    107   S     637            94.7710456   -0.004151277819
    107   S     638            17.3800462   -0.020670241480
    107   S     639             4.8841679   -0.051503033370
    107   S     640             0.6984469    0.334627117400
    107   S     641             0.3169981    0.562106130100
    107   S     642             0.1511746    0.171299469700
 
    108   P     643            18.3494739    0.007924233646
    108   P     644             4.7851696    0.051441048250
    108   P     645             1.7121793    0.189840006000
    108   P     646             0.7157237    0.404986319100
    108   P     647             0.3272776    0.401236286100
    108   P     648             0.1547253    0.105185518900

 C         
 
    109   S     649            94.7710456   -0.004151277819
    109   S     650            17.3800462   -0.020670241480
    109   S     651             4.8841679   -0.051503033370
    109   S     652             0.6984469    0.334627117400
    109   S     653             0.3169981    0.562106130100
    109   S     654             0.1511746    0.171299469700
 
    110   P     655            18.3494739    0.007924233646
    110   P     656             4.7851696    0.051441048250
    110   P     657             1.7121793    0.189840006000
    110   P     658             0.7157237    0.404986319100
    110   P     659             0.3272776    0.401236286100
    110   P     660             0.1547253    0.105185518900

 C         
 
    111   S     661            94.7710456   -0.004151277819
    111   S     662            17.3800462   -0.020670241480
    111   S     663             4.8841679   -0.051503033370
    111   S     664             0.6984469    0.334627117400
    111   S     665             0.3169981    0.562106130100
    111   S     666             0.1511746    0.171299469700
 
    112   P     667            18.3494739    0.007924233646
    112   P     668             4.7851696    0.051441048250
    112   P     669             1.7121793    0.189840006000
    112   P     670             0.7157237    0.404986319100
    112   P     671             0.3272776    0.401236286100
    112   P     672             0.1547253    0.105185518900

 C         
 
    113   S     673            94.7710456   -0.004151277819
    113   S     674            17.3800462   -0.020670241480
    113   S     675             4.8841679   -0.051503033370
    113   S     676             0.6984469    0.334627117400
    113   S     677             0.3169981    0.562106130100
    113   S     678             0.1511746    0.171299469700
 
    114   P     679            18.3494739    0.007924233646
    114   P     680             4.7851696    0.051441048250
    114   P     681             1.7121793    0.189840006000
    114   P     682             0.7157237    0.404986319100
    114   P     683             0.3272776    0.401236286100
    114   P     684             0.1547253    0.105185518900

 C         
 
    115   S     685            94.7710456   -0.004151277819
    115   S     686            17.3800462   -0.020670241480
    115   S     687             4.8841679   -0.051503033370
    115   S     688             0.6984469    0.334627117400
    115   S     689             0.3169981    0.562106130100
    115   S     690             0.1511746    0.171299469700
 
    116   P     691            18.3494739    0.007924233646
    116   P     692             4.7851696    0.051441048250
    116   P     693             1.7121793    0.189840006000
    116   P     694             0.7157237    0.404986319100
    116   P     695             0.3272776    0.401236286100
    116   P     696             0.1547253    0.105185518900

 C         
 
    117   S     697            94.7710456   -0.004151277819
    117   S     698            17.3800462   -0.020670241480
    117   S     699             4.8841679   -0.051503033370
    117   S     700             0.6984469    0.334627117400
    117   S     701             0.3169981    0.562106130100
    117   S     702             0.1511746    0.171299469700
 
    118   P     703            18.3494739    0.007924233646
    118   P     704             4.7851696    0.051441048250
    118   P     705             1.7121793    0.189840006000
    118   P     706             0.7157237    0.404986319100
    118   P     707             0.3272776    0.401236286100
    118   P     708             0.1547253    0.105185518900

 C         
 
    119   S     709            94.7710456   -0.004151277819
    119   S     710            17.3800462   -0.020670241480
    119   S     711             4.8841679   -0.051503033370
    119   S     712             0.6984469    0.334627117400
    119   S     713             0.3169981    0.562106130100
    119   S     714             0.1511746    0.171299469700
 
    120   P     715            18.3494739    0.007924233646
    120   P     716             4.7851696    0.051441048250
    120   P     717             1.7121793    0.189840006000
    120   P     718             0.7157237    0.404986319100
    120   P     719             0.3272776    0.401236286100
    120   P     720             0.1547253    0.105185518900

 C         
 
    121   S     721            94.7710456   -0.004151277819
    121   S     722            17.3800462   -0.020670241480
    121   S     723             4.8841679   -0.051503033370
    121   S     724             0.6984469    0.334627117400
    121   S     725             0.3169981    0.562106130100
    121   S     726             0.1511746    0.171299469700
 
    122   P     727            18.3494739    0.007924233646
    122   P     728             4.7851696    0.051441048250
    122   P     729             1.7121793    0.189840006000
    122   P     730             0.7157237    0.404986319100
    122   P     731             0.3272776    0.401236286100
    122   P     732             0.1547253    0.105185518900

 C         
 
    123   S     733            94.7710456   -0.004151277819
    123   S     734            17.3800462   -0.020670241480
    123   S     735             4.8841679   -0.051503033370
    123   S     736             0.6984469    0.334627117400
    123   S     737             0.3169981    0.562106130100
    123   S     738             0.1511746    0.171299469700
 
    124   P     739            18.3494739    0.007924233646
    124   P     740             4.7851696    0.051441048250
    124   P     741             1.7121793    0.189840006000
    124   P     742             0.7157237    0.404986319100
    124   P     743             0.3272776    0.401236286100
    124   P     744             0.1547253    0.105185518900

 C         
 
    125   S     745            94.7710456   -0.004151277819
    125   S     746            17.3800462   -0.020670241480
    125   S     747             4.8841679   -0.051503033370
    125   S     748             0.6984469    0.334627117400
    125   S     749             0.3169981    0.562106130100
    125   S     750             0.1511746    0.171299469700
 
    126   P     751            18.3494739    0.007924233646
    126   P     752             4.7851696    0.051441048250
    126   P     753             1.7121793    0.189840006000
    126   P     754             0.7157237    0.404986319100
    126   P     755             0.3272776    0.401236286100
    126   P     756             0.1547253    0.105185518900

 C         
 
    127   S     757            94.7710456   -0.004151277819
    127   S     758            17.3800462   -0.020670241480
    127   S     759             4.8841679   -0.051503033370
    127   S     760             0.6984469    0.334627117400
    127   S     761             0.3169981    0.562106130100
    127   S     762             0.1511746    0.171299469700
 
    128   P     763            18.3494739    0.007924233646
    128   P     764             4.7851696    0.051441048250
    128   P     765             1.7121793    0.189840006000
    128   P     766             0.7157237    0.404986319100
    128   P     767             0.3272776    0.401236286100
    128   P     768             0.1547253    0.105185518900

 C         
 
    129   S     769            94.7710456   -0.004151277819
    129   S     770            17.3800462   -0.020670241480
    129   S     771             4.8841679   -0.051503033370
    129   S     772             0.6984469    0.334627117400
    129   S     773             0.3169981    0.562106130100
    129   S     774             0.1511746    0.171299469700
 
    130   P     775            18.3494739    0.007924233646
    130   P     776             4.7851696    0.051441048250
    130   P     777             1.7121793    0.189840006000
    130   P     778             0.7157237    0.404986319100
    130   P     779             0.3272776    0.401236286100
    130   P     780             0.1547253    0.105185518900

 C         
 
    131   S     781            94.7710456   -0.004151277819
    131   S     782            17.3800462   -0.020670241480
    131   S     783             4.8841679   -0.051503033370
    131   S     784             0.6984469    0.334627117400
    131   S     785             0.3169981    0.562106130100
    131   S     786             0.1511746    0.171299469700
 
    132   P     787            18.3494739    0.007924233646
    132   P     788             4.7851696    0.051441048250
    132   P     789             1.7121793    0.189840006000
    132   P     790             0.7157237    0.404986319100
    132   P     791             0.3272776    0.401236286100
    132   P     792             0.1547253    0.105185518900

 C         
 
    133   S     793            94.7710456   -0.004151277819
    133   S     794            17.3800462   -0.020670241480
    133   S     795             4.8841679   -0.051503033370
    133   S     796             0.6984469    0.334627117400
    133   S     797             0.3169981    0.562106130100
    133   S     798             0.1511746    0.171299469700
 
    134   P     799            18.3494739    0.007924233646
    134   P     800             4.7851696    0.051441048250
    134   P     801             1.7121793    0.189840006000
    134   P     802             0.7157237    0.404986319100
    134   P     803             0.3272776    0.401236286100
    134   P     804             0.1547253    0.105185518900

 C         
 
    135   S     805            94.7710456   -0.004151277819
    135   S     806            17.3800462   -0.020670241480
    135   S     807             4.8841679   -0.051503033370
    135   S     808             0.6984469    0.334627117400
    135   S     809             0.3169981    0.562106130100
    135   S     810             0.1511746    0.171299469700
 
    136   P     811            18.3494739    0.007924233646
    136   P     812             4.7851696    0.051441048250
    136   P     813             1.7121793    0.189840006000
    136   P     814             0.7157237    0.404986319100
    136   P     815             0.3272776    0.401236286100
    136   P     816             0.1547253    0.105185518900

 C         
 
    137   S     817            94.7710456   -0.004151277819
    137   S     818            17.3800462   -0.020670241480
    137   S     819             4.8841679   -0.051503033370
    137   S     820             0.6984469    0.334627117400
    137   S     821             0.3169981    0.562106130100
    137   S     822             0.1511746    0.171299469700
 
    138   P     823            18.3494739    0.007924233646
    138   P     824             4.7851696    0.051441048250
    138   P     825             1.7121793    0.189840006000
    138   P     826             0.7157237    0.404986319100
    138   P     827             0.3272776    0.401236286100
    138   P     828             0.1547253    0.105185518900

 C         
 
    139   S     829            94.7710456   -0.004151277819
    139   S     830            17.3800462   -0.020670241480
    139   S     831             4.8841679   -0.051503033370
    139   S     832             0.6984469    0.334627117400
    139   S     833             0.3169981    0.562106130100
    139   S     834             0.1511746    0.171299469700
 
    140   P     835            18.3494739    0.007924233646
    140   P     836             4.7851696    0.051441048250
    140   P     837             1.7121793    0.189840006000
    140   P     838             0.7157237    0.404986319100
    140   P     839             0.3272776    0.401236286100
    140   P     840             0.1547253    0.105185518900

 C         
 
    141   S     841            94.7710456   -0.004151277819
    141   S     842            17.3800462   -0.020670241480
    141   S     843             4.8841679   -0.051503033370
    141   S     844             0.6984469    0.334627117400
    141   S     845             0.3169981    0.562106130100
    141   S     846             0.1511746    0.171299469700
 
    142   P     847            18.3494739    0.007924233646
    142   P     848             4.7851696    0.051441048250
    142   P     849             1.7121793    0.189840006000
    142   P     850             0.7157237    0.404986319100
    142   P     851             0.3272776    0.401236286100
    142   P     852             0.1547253    0.105185518900

 C         
 
    143   S     853            94.7710456   -0.004151277819
    143   S     854            17.3800462   -0.020670241480
    143   S     855             4.8841679   -0.051503033370
    143   S     856             0.6984469    0.334627117400
    143   S     857             0.3169981    0.562106130100
    143   S     858             0.1511746    0.171299469700
 
    144   P     859            18.3494739    0.007924233646
    144   P     860             4.7851696    0.051441048250
    144   P     861             1.7121793    0.189840006000
    144   P     862             0.7157237    0.404986319100
    144   P     863             0.3272776    0.401236286100
    144   P     864             0.1547253    0.105185518900

 C         
 
    145   S     865            94.7710456   -0.004151277819
    145   S     866            17.3800462   -0.020670241480
    145   S     867             4.8841679   -0.051503033370
    145   S     868             0.6984469    0.334627117400
    145   S     869             0.3169981    0.562106130100
    145   S     870             0.1511746    0.171299469700
 
    146   P     871            18.3494739    0.007924233646
    146   P     872             4.7851696    0.051441048250
    146   P     873             1.7121793    0.189840006000
    146   P     874             0.7157237    0.404986319100
    146   P     875             0.3272776    0.401236286100
    146   P     876             0.1547253    0.105185518900

 C         
 
    147   S     877            94.7710456   -0.004151277819
    147   S     878            17.3800462   -0.020670241480
    147   S     879             4.8841679   -0.051503033370
    147   S     880             0.6984469    0.334627117400
    147   S     881             0.3169981    0.562106130100
    147   S     882             0.1511746    0.171299469700
 
    148   P     883            18.3494739    0.007924233646
    148   P     884             4.7851696    0.051441048250
    148   P     885             1.7121793    0.189840006000
    148   P     886             0.7157237    0.404986319100
    148   P     887             0.3272776    0.401236286100
    148   P     888             0.1547253    0.105185518900

 C         
 
    149   S     889            94.7710456   -0.004151277819
    149   S     890            17.3800462   -0.020670241480
    149   S     891             4.8841679   -0.051503033370
    149   S     892             0.6984469    0.334627117400
    149   S     893             0.3169981    0.562106130100
    149   S     894             0.1511746    0.171299469700
 
    150   P     895            18.3494739    0.007924233646
    150   P     896             4.7851696    0.051441048250
    150   P     897             1.7121793    0.189840006000
    150   P     898             0.7157237    0.404986319100
    150   P     899             0.3272776    0.401236286100
    150   P     900             0.1547253    0.105185518900

 C         
 
    151   S     901            94.7710456   -0.004151277819
    151   S     902            17.3800462   -0.020670241480
    151   S     903             4.8841679   -0.051503033370
    151   S     904             0.6984469    0.334627117400
    151   S     905             0.3169981    0.562106130100
    151   S     906             0.1511746    0.171299469700
 
    152   P     907            18.3494739    0.007924233646
    152   P     908             4.7851696    0.051441048250
    152   P     909             1.7121793    0.189840006000
    152   P     910             0.7157237    0.404986319100
    152   P     911             0.3272776    0.401236286100
    152   P     912             0.1547253    0.105185518900

 C         
 
    153   S     913            94.7710456   -0.004151277819
    153   S     914            17.3800462   -0.020670241480
    153   S     915             4.8841679   -0.051503033370
    153   S     916             0.6984469    0.334627117400
    153   S     917             0.3169981    0.562106130100
    153   S     918             0.1511746    0.171299469700
 
    154   P     919            18.3494739    0.007924233646
    154   P     920             4.7851696    0.051441048250
    154   P     921             1.7121793    0.189840006000
    154   P     922             0.7157237    0.404986319100
    154   P     923             0.3272776    0.401236286100
    154   P     924             0.1547253    0.105185518900

 C         
 
    155   S     925            94.7710456   -0.004151277819
    155   S     926            17.3800462   -0.020670241480
    155   S     927             4.8841679   -0.051503033370
    155   S     928             0.6984469    0.334627117400
    155   S     929             0.3169981    0.562106130100
    155   S     930             0.1511746    0.171299469700
 
    156   P     931            18.3494739    0.007924233646
    156   P     932             4.7851696    0.051441048250
    156   P     933             1.7121793    0.189840006000
    156   P     934             0.7157237    0.404986319100
    156   P     935             0.3272776    0.401236286100
    156   P     936             0.1547253    0.105185518900

 C         
 
    157   S     937            94.7710456   -0.004151277819
    157   S     938            17.3800462   -0.020670241480
    157   S     939             4.8841679   -0.051503033370
    157   S     940             0.6984469    0.334627117400
    157   S     941             0.3169981    0.562106130100
    157   S     942             0.1511746    0.171299469700
 
    158   P     943            18.3494739    0.007924233646
    158   P     944             4.7851696    0.051441048250
    158   P     945             1.7121793    0.189840006000
    158   P     946             0.7157237    0.404986319100
    158   P     947             0.3272776    0.401236286100
    158   P     948             0.1547253    0.105185518900

 C         
 
    159   S     949            94.7710456   -0.004151277819
    159   S     950            17.3800462   -0.020670241480
    159   S     951             4.8841679   -0.051503033370
    159   S     952             0.6984469    0.334627117400
    159   S     953             0.3169981    0.562106130100
    159   S     954             0.1511746    0.171299469700
 
    160   P     955            18.3494739    0.007924233646
    160   P     956             4.7851696    0.051441048250
    160   P     957             1.7121793    0.189840006000
    160   P     958             0.7157237    0.404986319100
    160   P     959             0.3272776    0.401236286100
    160   P     960             0.1547253    0.105185518900

 C         
 
    161   S     961            94.7710456   -0.004151277819
    161   S     962            17.3800462   -0.020670241480
    161   S     963             4.8841679   -0.051503033370
    161   S     964             0.6984469    0.334627117400
    161   S     965             0.3169981    0.562106130100
    161   S     966             0.1511746    0.171299469700
 
    162   P     967            18.3494739    0.007924233646
    162   P     968             4.7851696    0.051441048250
    162   P     969             1.7121793    0.189840006000
    162   P     970             0.7157237    0.404986319100
    162   P     971             0.3272776    0.401236286100
    162   P     972             0.1547253    0.105185518900

 C         
 
    163   S     973            94.7710456   -0.004151277819
    163   S     974            17.3800462   -0.020670241480
    163   S     975             4.8841679   -0.051503033370
    163   S     976             0.6984469    0.334627117400
    163   S     977             0.3169981    0.562106130100
    163   S     978             0.1511746    0.171299469700
 
    164   P     979            18.3494739    0.007924233646
    164   P     980             4.7851696    0.051441048250
    164   P     981             1.7121793    0.189840006000
    164   P     982             0.7157237    0.404986319100
    164   P     983             0.3272776    0.401236286100
    164   P     984             0.1547253    0.105185518900

 C         
 
    165   S     985            94.7710456   -0.004151277819
    165   S     986            17.3800462   -0.020670241480
    165   S     987             4.8841679   -0.051503033370
    165   S     988             0.6984469    0.334627117400
    165   S     989             0.3169981    0.562106130100
    165   S     990             0.1511746    0.171299469700
 
    166   P     991            18.3494739    0.007924233646
    166   P     992             4.7851696    0.051441048250
    166   P     993             1.7121793    0.189840006000
    166   P     994             0.7157237    0.404986319100
    166   P     995             0.3272776    0.401236286100
    166   P     996             0.1547253    0.105185518900

 C         
 
    167   S     997            94.7710456   -0.004151277819
    167   S     998            17.3800462   -0.020670241480
    167   S     999             4.8841679   -0.051503033370
    167   S    1000             0.6984469    0.334627117400
    167   S    1001             0.3169981    0.562106130100
    167   S    1002             0.1511746    0.171299469700
 
    168   P    1003            18.3494739    0.007924233646
    168   P    1004             4.7851696    0.051441048250
    168   P    1005             1.7121793    0.189840006000
[...]
  215  C 63  Y   -0.000027  -0.000014  -0.000006  -0.000002  -0.000000
  216  C 63  Z    0.000011   0.000005   0.000002  -0.000000  -0.000001
  217  C 64  S    0.000009   0.000013  -0.000003   0.000003  -0.000002
  218  C 64  X   -0.000002  -0.000012   0.000002  -0.000006  -0.000003
  219  C 64  Y   -0.000018  -0.000009   0.000006  -0.000007  -0.000002
  220  C 64  Z   -0.000001  -0.000000  -0.000001  -0.000002  -0.000002
  221  C 65  S   -0.000014   0.000002   0.000004   0.000002  -0.000001
  222  C 65  X    0.000001   0.000005  -0.000001  -0.000000  -0.000003
  223  C 65  Y    0.000017   0.000008  -0.000006   0.000001   0.000008
  224  C 65  Z    0.000003   0.000001   0.000001   0.000001   0.000001
  225  C 66  S   -0.000009   0.000002  -0.000002  -0.000001   0.000001
  226  C 66  X   -0.000009   0.000002   0.000000  -0.000000  -0.000001
  227  C 66  Y    0.000021  -0.000005   0.000004   0.000003   0.000004
  228  C 66  Z    0.000007  -0.000009   0.000000  -0.000001  -0.000001
  229  C 67  S    0.000015  -0.000013  -0.000000  -0.000003  -0.000002
  230  C 67  X    0.000007  -0.000004  -0.000002   0.000001  -0.000001
  231  C 67  Y   -0.000024   0.000009  -0.000003   0.000005  -0.000001
  232  C 67  Z   -0.000021   0.000007   0.000001   0.000003  -0.000002
  233  C 68  S    0.000006  -0.000000  -0.000002  -0.000001   0.000001
  234  C 68  X    0.000002  -0.000000  -0.000002   0.000000  -0.000000
  235  C 68  Y   -0.000004   0.000002   0.000002   0.000000  -0.000001
  236  C 68  Z   -0.000011   0.000007   0.000004  -0.000000   0.000000
  237  C 69  S    0.000000  -0.000001  -0.000001   0.000000   0.000000
  238  C 69  X   -0.000004   0.000003  -0.000000  -0.000000   0.000000
  239  C 69  Y    0.000005  -0.000001  -0.000000   0.000000   0.000000
  240  C 69  Z    0.000009  -0.000003  -0.000001   0.000000  -0.000000
  241  C 70  S   -0.000001   0.000000   0.000000   0.000000  -0.000000
  242  C 70  X    0.000001  -0.000001   0.000000   0.000000  -0.000000
  243  C 70  Y    0.000001  -0.000000  -0.000000  -0.000000   0.000000
  244  C 70  Z   -0.000002   0.000000   0.000000   0.000000   0.000000
  245  C 71  S   -0.000000  -0.000000   0.000000   0.000000  -0.000000
  246  C 71  X    0.000000   0.000000  -0.000000   0.000000   0.000000
  247  C 71  Y    0.000000  -0.000000  -0.000000   0.000000  -0.000000
  248  C 71  Z    0.000000  -0.000000   0.000000  -0.000000  -0.000000
  249  C 72  S   -0.000000   0.000000  -0.000000  -0.000000   0.000000
  250  C 72  X   -0.000000   0.000000   0.000000  -0.000000   0.000000
  251  C 72  Y   -0.000000  -0.000000   0.000000   0.000000  -0.000000
  252  C 72  Z   -0.000000  -0.000000   0.000000  -0.000000  -0.000000
  253  C 73  S    0.000000  -0.000000  -0.000000   0.000000  -0.000000
  254  C 73  X   -0.000000  -0.000000   0.000000  -0.000000  -0.000000
  255  C 73  Y   -0.000000   0.000000   0.000000  -0.000000  -0.000000
  256  C 73  Z   -0.000000  -0.000000  -0.000000   0.000000   0.000000
  257  C 74  S   -0.000000  -0.000000  -0.000000  -0.000000  -0.000000
  258  C 74  X   -0.000000  -0.000000   0.000000   0.000000  -0.000000
  259  C 74  Y   -0.000000  -0.000000  -0.000000   0.000000  -0.000000
  260  C 74  Z   -0.000000  -0.000000  -0.000000   0.000000   0.000000
  261  C 75  S    0.000000  -0.000000   0.000000   0.000000   0.000000
  262  C 75  X   -0.000000  -0.000000   0.000000  -0.000000  -0.000000
  263  C 75  Y    0.000000   0.000000  -0.000000   0.000000  -0.000000
  264  C 75  Z    0.000000  -0.000000   0.000000  -0.000000  -0.000000
  265  C 76  S    0.000000  -0.000000   0.000000   0.000000  -0.000000
  266  C 76  X   -0.000000   0.000000  -0.000000   0.000000  -0.000000
  267  C 76  Y    0.000000   0.000000  -0.000000  -0.000000   0.000000
  268  C 76  Z    0.000000   0.000000   0.000000  -0.000000  -0.000000
  269  C 77  S   -0.000000   0.000000   0.000000  -0.000000   0.000000
  270  C 77  X    0.000000  -0.000000  -0.000000   0.000000  -0.000000
  271  C 77  Y    0.000000   0.000000  -0.000000   0.000000  -0.000000
  272  C 77  Z    0.000000   0.000000  -0.000000   0.000000   0.000000
  273  C 78  S    0.000000   0.000000  -0.000000   0.000000  -0.000000
  274  C 78  X    0.000000   0.000000   0.000000  -0.000000   0.000000
  275  C 78  Y   -0.000000  -0.000001   0.000000   0.000000  -0.000000
  276  C 78  Z   -0.000000  -0.000000  -0.000000   0.000000   0.000000
  277  C 79  S    0.000001  -0.000001  -0.000000  -0.000000   0.000000
  278  C 79  X    0.000000   0.000001  -0.000000  -0.000000  -0.000000
  279  C 79  Y   -0.000001   0.000001   0.000000  -0.000000   0.000000
  280  C 79  Z    0.000000   0.000000  -0.000000  -0.000000   0.000000
  281  C 80  S   -0.000000  -0.000000   0.000000  -0.000000   0.000000
  282  C 80  X   -0.000002  -0.000001   0.000001   0.000000   0.000000
  283  C 80  Y   -0.000001   0.000003  -0.000000  -0.000000  -0.000000
  284  C 80  Z   -0.000001  -0.000000   0.000000   0.000000  -0.000000
  285  C 81  S   -0.000001  -0.000009   0.000002  -0.000001   0.000001
  286  C 81  X    0.000001   0.000005  -0.000002   0.000000  -0.000000
  287  C 81  Y   -0.000001   0.000003  -0.000001   0.000001  -0.000000
  288  C 81  Z   -0.000003   0.000018  -0.000004  -0.000000   0.000000
  289  C 82  S    0.000007  -0.000024   0.000000   0.000001   0.000003
  290  C 82  X   -0.000001   0.000019  -0.000000  -0.000000  -0.000001
  291  C 82  Y   -0.000002   0.000025   0.000003   0.000003  -0.000005
  292  C 82  Z   -0.000003   0.000032  -0.000001   0.000003  -0.000002
  293  C 83  S    0.000001   0.000010   0.000001  -0.000001   0.000000
  294  C 83  X   -0.000002  -0.000016  -0.000002  -0.000002  -0.000002
  295  C 83  Y    0.000002  -0.000018  -0.000003  -0.000002  -0.000003
  296  C 83  Z    0.000004  -0.000014  -0.000001   0.000001   0.000001
  297  C 84  S   -0.000003   0.000011  -0.000004   0.000001   0.000000
  298  C 84  X   -0.000000  -0.000018   0.000005  -0.000000   0.000000
  299  C 84  Y   -0.000000  -0.000022   0.000004  -0.000001  -0.000001
  300  C 84  Z   -0.000001   0.000004   0.000001  -0.000000  -0.000000
  301  C 85  S    0.000004   0.000004   0.000000   0.000000   0.000000
  302  C 85  X    0.000000  -0.000007   0.000001  -0.000000  -0.000000
  303  C 85  Y    0.000003  -0.000008   0.000002  -0.000000  -0.000000
  304  C 85  Z   -0.000003   0.000002  -0.000001   0.000000  -0.000000
  305  C 86  S   -0.000001   0.000002  -0.000000   0.000000   0.000000
  306  C 86  X    0.000000   0.000003  -0.000000   0.000000   0.000000
  307  C 86  Y    0.000001   0.000000   0.000000  -0.000000  -0.000000
  308  C 86  Z    0.000003  -0.000002   0.000001  -0.000000  -0.000000
  309  C 87  S   -0.000001  -0.000000  -0.000000  -0.000000  -0.000000
  310  C 87  X   -0.000000  -0.000000  -0.000000  -0.000000  -0.000000
  311  C 87  Y   -0.000000  -0.000000   0.000000   0.000000  -0.000000
  312  C 87  Z    0.000001   0.000001  -0.000000   0.000000   0.000000
  313  C 88  S    0.000000   0.000000   0.000000   0.000000   0.000000
  314  C 88  X   -0.000000   0.000000  -0.000000   0.000000  -0.000000
  315  C 88  Y   -0.000001  -0.000000  -0.000000  -0.000000  -0.000000
  316  C 88  Z   -0.000000  -0.000000  -0.000000  -0.000000  -0.000000
  317  C 89  S    0.000000   0.000000  -0.000000   0.000000   0.000000
  318  C 89  X    0.000000  -0.000000   0.000000  -0.000000   0.000000
  319  C 89  Y    0.000000  -0.000000   0.000000  -0.000000  -0.000000
  320  C 89  Z   -0.000000   0.000000   0.000000  -0.000000  -0.000000
  321  C 90  S    0.000001  -0.000001   0.000000  -0.000000   0.000000
  322  C 90  X    0.000000  -0.000001   0.000000  -0.000000   0.000000
  323  C 90  Y   -0.000001   0.000001  -0.000000   0.000000   0.000000
  324  C 90  Z   -0.000000  -0.000001  -0.000000  -0.000000  -0.000000
  325  C 91  S   -0.000000  -0.000002   0.000000  -0.000000  -0.000000
  326  C 91  X    0.000000  -0.000002   0.000000  -0.000000  -0.000000
  327  C 91  Y    0.000000   0.000003  -0.000000   0.000000   0.000000
  328  C 91  Z   -0.000001   0.000000  -0.000001   0.000000  -0.000000
  329  C 92  S    0.000000   0.000005  -0.000001   0.000000   0.000000
  330  C 92  X   -0.000001   0.000015  -0.000001   0.000000   0.000000
  331  C 92  Y   -0.000001   0.000002  -0.000001  -0.000000  -0.000000
  332  C 92  Z    0.000001   0.000007   0.000000   0.000000   0.000000
  333  C 93  S    0.000001   0.000000   0.000001  -0.000000  -0.000000
  334  C 93  X    0.000001  -0.000004  -0.000001   0.000000  -0.000000
  335  C 93  Y   -0.000000  -0.000004   0.000000  -0.000000   0.000000
  336  C 93  Z    0.000001  -0.000014   0.000001   0.000000  -0.000000
  337  C 94  S   -0.000000   0.000002   0.000000   0.000000   0.000000
  338  C 94  X   -0.000000  -0.000000   0.000000  -0.000000   0.000000
  339  C 94  Y    0.000000  -0.000002   0.000000  -0.000000  -0.000000
  340  C 94  Z   -0.000000   0.000003  -0.000000  -0.000000   0.000000
  341  C 95  S   -0.000000  -0.000000  -0.000000   0.000000   0.000000
  342  C 95  X    0.000000  -0.000001   0.000000   0.000000   0.000000
  343  C 95  Y    0.000000  -0.000000   0.000000  -0.000000  -0.000000
  344  C 95  Z    0.000000   0.000001  -0.000000  -0.000000   0.000000
  345  C 96  S   -0.000000   0.000000  -0.000000   0.000000  -0.000000
  346  C 96  X   -0.000000   0.000000  -0.000000  -0.000000  -0.000000
  347  C 96  Y   -0.000000  -0.000000   0.000000  -0.000000   0.000000
  348  C 96  Z    0.000000  -0.000000   0.000000  -0.000000   0.000000
  349  C 97  S   -0.000000   0.000000  -0.000000   0.000000  -0.000000
  350  C 97  X    0.000000   0.000000  -0.000000   0.000000  -0.000000
  351  C 97  Y    0.000000  -0.000000   0.000000   0.000000   0.000000
  352  C 97  Z   -0.000000  -0.000000  -0.000000   0.000000   0.000000
  353  C 98  S   -0.000000  -0.000000   0.000000  -0.000000   0.000000
  354  C 98  X   -0.000000   0.000000  -0.000000   0.000000  -0.000000
  355  C 98  Y    0.000000   0.000000  -0.000000   0.000000   0.000000
  356  C 98  Z    0.000000   0.000000  -0.000000   0.000000  -0.000000
  357  C 99  S   -0.000000  -0.000000  -0.000000  -0.000000  -0.000000
  358  C 99  X   -0.000000  -0.000000   0.000000   0.000000   0.000000
  359  C 99  Y    0.000000   0.000000   0.000000  -0.000000  -0.000000
  360  C 99  Z   -0.000000  -0.000000  -0.000000  -0.000000  -0.000000
  361  C  0  S    0.000000   0.000000   0.000000  -0.000000   0.000000
  362  C  0  X    0.000000   0.000000   0.000000   0.000000   0.000000
  363  C  0  Y   -0.000000  -0.000000   0.000000   0.000000  -0.000000
  364  C  0  Z   -0.000000  -0.000000  -0.000000  -0.000000  -0.000000
  365  C  1  S   -0.000000  -0.000000  -0.000000  -0.000000   0.000000
  366  C  1  X    0.000001   0.000000   0.000000   0.000000  -0.000000
  367  C  1  Y   -0.000000   0.000000  -0.000000   0.000000  -0.000000
  368  C  1  Z    0.000000  -0.000000   0.000000  -0.000000  -0.000000
  369  C  2  S   -0.000000  -0.000000  -0.000000  -0.000000   0.000000
  370  C  2  X    0.000000   0.000000  -0.000000   0.000000   0.000000
  371  C  2  Y    0.000000   0.000000  -0.000000  -0.000000  -0.000000
  372  C  2  Z    0.000000   0.000000   0.000000   0.000000   0.000000
  373  C  3  S    0.000000   0.000000   0.000000   0.000000   0.000000
  374  C  3  X   -0.000000  -0.000000  -0.000000   0.000000   0.000000
  375  C  3  Y   -0.000000  -0.000000  -0.000000  -0.000000   0.000000
  376  C  3  Z    0.000000   0.000000   0.000000   0.000000   0.000000
  377  C  4  S    0.000000   0.000000  -0.000000  -0.000000   0.000000
  378  C  4  X    0.000000  -0.000000  -0.000000  -0.000000   0.000000
  379  C  4  Y   -0.000000  -0.000000   0.000000   0.000000  -0.000000
  380  C  4  Z   -0.000000  -0.000000   0.000000  -0.000000  -0.000000
 ...... END OF RHF CALCULATION ......
 STEP CPU TIME =     1.00 TOTAL CPU TIME =        1.1 (    0.0 MIN)
 TOTAL WALL CLOCK TIME=        2.0 SECONDS, CPU UTILIZATION IS  55.78%

     ----------------------------------------------------------------
     PROPERTY VALUES FOR THE RHF   SELF-CONSISTENT FIELD WAVEFUNCTION
     ----------------------------------------------------------------

                    -------------
                    MOPAC CHARGES
                    -------------
         ATOM NO.   TYPE          CHARGE        ATOM  ELECTRON DENSITY
           1         C             -0.0975          4.0975
           2         C             -0.0973          4.0973
           3         C             -0.0491          4.0491
           4         C             -0.0470          4.0470
           5         C             -0.0489          4.0489
           6         C             -0.0473          4.0473
           7         C              0.1971          3.8029
           8         N             -0.2620          5.2620
           9         H              0.1147          0.8853
          10         H              0.1147          0.8853
          11         H              0.1316          0.8684
          12         H              0.1316          0.8684
          13         C              0.1978          3.8022
          14         N             -0.2371          5.2371
          15         C             -0.0975          4.0975
          16         C             -0.0974          4.0974
          17         C             -0.0491          4.0491
          18         C             -0.0469          4.0469
          19         C             -0.0491          4.0491
          20         C             -0.0471          4.0471
          21         C              0.1968          3.8032
          22         N             -0.2615          5.2615
          23         H              0.1147          0.8853
          24         H              0.1147          0.8853
          25         H              0.1316          0.8684
          26         H              0.1316          0.8684
          27         B              0.2958          2.7042
          28         C              0.1968          3.8032
          29         N             -0.2367          5.2367
          30         C             -0.0972          4.0972
          31         C             -0.0975          4.0975
          32         C             -0.0489          4.0489
          33         C             -0.0474          4.0474
          34         C             -0.0493          4.0493
          35         C             -0.0469          4.0469
          36         C              0.1977          3.8023
          37         N             -0.2619          5.2619
          38         H              0.1147          0.8853
          39         H              0.1148          0.8852
          40         H              0.1316          0.8684
          41         H              0.1316          0.8684
          42         C              0.1970          3.8030
          43         N             -0.2366          5.2366
          44         CL            -0.3002          7.3002
          45         C              0.0001          3.9999
          46         C             -0.0002          4.0002
          47         C             -0.0004          4.0004
          48         C             -0.0001          4.0001
          49         C              0.0001          3.9999
          50         C              0.0001          3.9999
          51         C              0.0003          3.9997
          52         C             -0.0003          4.0003
          53         C             -0.0003          4.0003
          54         C             -0.0015          4.0015
          55         C              0.0016          3.9984
          56         C              0.0004          3.9996
          57         C              0.0021          3.9979
          58         C             -0.0014          4.0014
          59         C             -0.0005          4.0005
          60         C             -0.0005          4.0005
          61         C             -0.0004          4.0004
          62         C             -0.0013          4.0013
          63         C              0.0023          3.9977
          64         C             -0.0003          4.0003
          65         C             -0.0009          4.0009
          66         C             -0.0005          4.0005
          67         C              0.0008          3.9992
          68         C              0.0007          3.9993
          69         C             -0.0010          4.0010
          70         C             -0.0003          4.0003
          71         C              0.0000          4.0000
          72         C              0.0000          4.0000
          73         C              0.0002          3.9998
          74         C              0.0002          3.9998
          75         C              0.0002          3.9998
          76         C              0.0002          3.9998
          77         C              0.0001          3.9999
          78         C              0.0000          4.0000
          79         C             -0.0002          4.0002
          80         C              0.0001          3.9999
          81         C              0.0008          3.9992
          82         C              0.0012          3.9988
          83         C             -0.0007          4.0007
          84         C              0.0014          3.9986
          85         C              0.0003          3.9997
          86         C             -0.0004          4.0004
          87         C             -0.0001          4.0001
          88         C              0.0001          3.9999
          89         C              0.0000          4.0000
          90         C             -0.0001          4.0001
          91         C             -0.0003          4.0003
          92         C             -0.0016          4.0016
          93         C             -0.0010          4.0010
          94         C             -0.0003          4.0003
          95         C             -0.0003          4.0003
          96         C              0.0003          3.9997
          97         C              0.0002          3.9998
          98         C              0.0002          3.9998
          99         C              0.0002          3.9998
         100         C              0.0001          3.9999
         101         C              0.0003          3.9997
         102         C              0.0001          3.9999
         103         C              0.0002          3.9998
         104         C              0.0002          3.9998

          ---------------------
          ELECTROSTATIC MOMENTS
          ---------------------

 POINT   1           X           Y           Z (ANGS)      CHARGE
                 0.000000    0.000000    0.000000        0.00 (A.U.)
         DX          DY          DZ         /D/  (DEBYE)
     1.390961    5.734776    1.475684    6.082768
 ...... END OF PROPERTY EVALUATION ......
 STEP CPU TIME =     0.00 TOTAL CPU TIME =        1.1 (    0.0 MIN)
 TOTAL WALL CLOCK TIME=        2.1 SECONDS, CPU UTILIZATION IS  52.61%
               1448630  WORDS OF DYNAMIC MEMORY USED
 EXECUTION OF GAMESS TERMINATED NORMALLY Thu Jul 21 11:14:37 2016
 DDI: 263640 bytes (0.3 MB / 0 MWords) used by master data server.

 ----------------------------------------
 CPU timing information for all processes
 ========================================
 0: 0.983 + 0.136 = 1.120
 ----------------------------------------
 ddikick.x: exited gracefully.
unset echo
----- accounting info -----
Files used on the master node boo.mosk.tytlabs.co.jp were:
-rw-r--r-- 1 e1667 e1667     4564 Jul 21 11:14 /home/e1667/work/scr_rm1/SubPc-C60.F05
-rw-rw-r-- 1 e1667 e1667        0 Jul 21 11:14 /home/e1667/work/scr_rm1/SubPc-C60.F08
-rw-rw-r-- 1 e1667 e1667 13218880 Jul 21 11:14 /home/e1667/work/scr_rm1/SubPc-C60.F10
cp: cannot stat `/home/e1667/work/scr_rm1/SubPc-C60.F18': No such file or directory
Thu Jul 21 11:14:40 JST 2016
0.116u 0.036s 0:05.40 2.5%	0+0k 0+24io 0pf+0w
