----- GAMESS execution script 'rungms' -----
This job is running on host boo.mosk.tytlabs.co.jp
under operating system Linux at Sun Feb 19 01:17:29 JST 2017
Available scratch disk space (Kbyte units) at beginning of the job is
Filesystem     1K-blocks      Used Available Use% Mounted on
/dev/sda3      952970396 119440384 785121888  14% /
GAMESS temporary binary files will be written to /home/e1667/work/namd/Pc_C60/cooling/rm1/scr
GAMESS supplementary output files will be written to /home/e1667/work/namd/Pc_C60/cooling/rm1/scr
Copying input file SubPc-C60_wrk.inp to your run's scratch directory...

 Distributed Data Interface kickoff program.
 Initiating 1 compute processes on 1 nodes to run the following command:
 /home/e1667/install/gamess/gamess.00.x SubPc-C60_wrk 

          ******************************************************
          *         GAMESS VERSION =  5 DEC 2014 (R1)          *
          *             FROM IOWA STATE UNIVERSITY             *
          * M.W.SCHMIDT, K.K.BALDRIDGE, J.A.BOATZ, S.T.ELBERT, *
          *   M.S.GORDON, J.H.JENSEN, S.KOSEKI, N.MATSUNAGA,   *
          *          K.A.NGUYEN, S.J.SU, T.L.WINDUS,           *
          *       TOGETHER WITH M.DUPUIS, J.A.MONTGOMERY       *
          *         J.COMPUT.CHEM.  14, 1347-1363(1993)        *
          **************** 64 BIT INTEL VERSION ****************

  SINCE 1993, STUDENTS AND POSTDOCS WORKING AT IOWA STATE UNIVERSITY
  AND ALSO IN THEIR VARIOUS JOBS AFTER LEAVING ISU HAVE MADE IMPORTANT
  CONTRIBUTIONS TO THE CODE:
     IVANA ADAMOVIC, CHRISTINE AIKENS, YURI ALEXEEV, POOJA ARORA,
     ANDREY ASADCHEV, ROB BELL, PRADIPTA BANDYOPADHYAY, JONATHAN BENTZ,
     BRETT BODE, KURT BRORSEN, CALEB CARLIN, GALINA CHABAN, WEI CHEN,
     CHEOL HO CHOI, PAUL DAY, ALBERT DEFUSCO, NUWAN DESILVA, TIM DUDLEY,
     DMITRI FEDOROV, GRAHAM FLETCHER, MARK FREITAG, KURT GLAESEMANN,
     DAN KEMP, GRANT MERRILL, NORIYUKI MINEZAWA, JONATHAN MULLIN,
     TAKESHI NAGATA, SEAN NEDD, HEATHER NETZLOFF, BOSILJKA NJEGIC, RYAN OLSON,
     MIKE PAK, SPENCER PRUITT, LUKE ROSKOP, JIM SHOEMAKER, LYUDMILA SLIPCHENKO,
     TONY SMITH, SAROM SOK, JIE SONG, TETSUYA TAKETSUGU, SIMON WEBB,
     PENG XU, SOOHAENG YOO, FEDERICO ZAHARIEV

  ADDITIONAL CODE HAS BEEN PROVIDED BY COLLABORATORS IN OTHER GROUPS:
     IOWA STATE UNIVERSITY:
          JOE IVANIC, AARON WEST, LAIMUTIS BYTAUTAS, KLAUS RUEDENBERG
     UNIVERSITY OF TOKYO: KIMIHIKO HIRAO, TAKAHITO NAKAJIMA,
          TAKAO TSUNEDA, MUNEAKI KAMIYA, SUSUMU YANAGISAWA,
          KIYOSHI YAGI, MAHITO CHIBA, SEIKEN TOKURA, NAOAKI KAWAKAMI
     UNIVERSITY OF AARHUS: FRANK JENSEN
     UNIVERSITY OF IOWA: VISVALDAS KAIRYS, HUI LI
     NATIONAL INST. OF STANDARDS AND TECHNOLOGY: WALT STEVENS, DAVID GARMER
     UNIVERSITY OF PISA: BENEDETTA MENNUCCI, JACOPO TOMASI
     UNIVERSITY OF MEMPHIS: HENRY KURTZ, PRAKASHAN KORAMBATH
     UNIVERSITY OF ALBERTA: TOBY ZENG, MARIUSZ KLOBUKOWSKI
     UNIVERSITY OF NEW ENGLAND: MARK SPACKMAN
     MIE UNIVERSITY: HIROAKI UMEDA
     NAT. INST. OF ADVANCED INDUSTRIAL SCIENCE AND TECHNOLOGY: KAZUO KITAURA
     MICHIGAN STATE UNIVERSITY:
          KAROL KOWALSKI, MARTA WLOCH, JEFFREY GOUR, JESSE LUTZ,
          WEI LI, PIOTR PIECUCH
     UNIVERSITY OF SILESIA: MONIKA MUSIAL, STANISLAW KUCHARSKI
     FACULTES UNIVERSITAIRES NOTRE-DAME DE LA PAIX:
          OLIVIER QUINET, BENOIT CHAMPAGNE
     UNIVERSITY OF CALIFORNIA - SANTA BARBARA: BERNARD KIRTMAN
     INSTITUTE FOR MOLECULAR SCIENCE:
          KAZUYA ISHIMURA, MICHIO KATOUDA, AND SHIGERU NAGASE
     UNIVERSITY OF NOTRE DAME: ANNA POMOGAEVA, DAN CHIPMAN
     KYUSHU UNIVERSITY:
          HARUYUKI NAKANO,
          FENG LONG GU, JACEK KORCHOWIEC, MARCIN MAKOWSKI, AND YURIKO AOKI,
          HIROTOSHI MORI AND EISAKU MIYOSHI
     PENNSYLVANIA STATE UNIVERSITY:
          TZVETELIN IORDANOV, CHET SWALINA, JONATHAN SKONE,
          SHARON HAMMES-SCHIFFER
     WASEDA UNIVERSITY:
          MASATO KOBAYASHI, TOMOKO AKAMA, TSUGUKI TOUMA,
          TAKESHI YOSHIKAWA, YASUHIRO IKABATA, HIROMI NAKAI
     NANJING UNIVERSITY: SHUHUA LI
     UNIVERSITY OF NEBRASKA:
          PEIFENG SU, DEJUN SI, NANDUN THELLAMUREGE, YALI WANG, HUI LI
     UNIVERSITY OF ZURICH: ROBERTO PEVERATI, KIM BALDRIDGE
     N. COPERNICUS UNIVERSITY AND JACKSON STATE UNIVERSITY:
          MARIA BARYSZ
     UNIVERSITY OF COPENHAGEN: CASPER STEINMANN
     TOKYO INSTITUTE OF TECHNOLOGY: HIROYA NAKATA
     NAGOYA UNIVERSITY: YOSHIO NISHIMOTO, STEPHAN IRLE

 EXECUTION OF GAMESS BEGUN Sun Feb 19 01:17:30 2017

            ECHO OF THE FIRST FEW INPUT CARDS -
 INPUT CARD>! ================================================================              
 INPUT CARD>! This file was generated by Gabedit                                            
 INPUT CARD>! ================================================================              
 INPUT CARD> $SYSTEM MWORDS=20 $END                                                         
 INPUT CARD> $CONTRL RUNTYP=gradient $END                                                   
 INPUT CARD> $BASIS GBASIS=RM1 NGAUSS=6 $END                                                
 INPUT CARD> $CONTRL MAXIT=200 $END                                                         
 INPUT CARD> $CONTRL ICHARG=0  MULT=1 $END                                                  
 INPUT CARD> $DATA                                                                          
 INPUT CARD>Molecule specification                                                          
 INPUT CARD>Cn 1                                                                            
 INPUT CARD>                                                                                
 INPUT CARD>C   6.0       4.5747544      -3.0956962      -2.1629272                         
 INPUT CARD>C   6.0       4.0546351      -2.6683083      -3.3969987                         
 INPUT CARD>C   6.0       2.7067585      -2.8669314      -3.7239120                         
 INPUT CARD>C   6.0       1.8880700      -3.5011449      -2.7928591                         
 INPUT CARD>C   6.0       3.7632797      -3.7342716      -1.2158678                         
 INPUT CARD>C   6.0       2.4210991      -3.9377712      -1.5263524                         
 INPUT CARD>C   6.0       0.4563450      -3.7737403      -2.7854088                         
 INPUT CARD>N   7.0       0.2381216      -4.5760004      -1.6495328                         
 INPUT CARD>H   1.0       5.6312272      -2.9257108      -1.9353397                         
 INPUT CARD>H   1.0       4.7120729      -2.1702007      -4.1156430                         
 INPUT CARD>H   1.0       2.2959227      -2.5320388      -4.6804714                         
 INPUT CARD>H   1.0       4.1613801      -4.0634701      -0.2520065                         
 INPUT CARD>C   6.0       1.3138237      -4.4735300      -0.7445148                         
 INPUT CARD>N   7.0       1.1943533      -4.5829988       0.6072055                         
 INPUT CARD>C   6.0      -4.2690464      -0.5256125      -4.0829480                         
 INPUT CARD>C   6.0      -5.1124444      -0.6017963      -2.9612772                         
 INPUT CARD>C   6.0      -4.8616897      -1.5121320      -1.9255360                         
 INPUT CARD>C   6.0      -3.7517075      -2.3455047      -2.0337927                         
 INPUT CARD>C   6.0      -3.1487990      -1.3587344      -4.2061779                         
 INPUT CARD>C   6.0      -2.8882204      -2.2695885      -3.1859947                         
 INPUT CARD>C   6.0      -3.1710052      -3.3146105      -1.1122003                         
 INPUT CARD>N   7.0      -2.1547072      -3.9589104      -1.8459022                         
 INPUT CARD>H   1.0      -4.4881065       0.1974016      -4.8742038                         
 INPUT CARD>H   1.0      -5.9791556       0.0621903      -2.8922342                         
 INPUT CARD>H   1.0      -5.5109477      -1.5706814      -1.0474987                         
 INPUT CARD>H   1.0      -2.4865536      -1.2998936      -5.0744737                         
 INPUT CARD>B   5.0      -1.1752676      -4.9269757      -1.1758551                         
 INPUT CARD>C   6.0      -1.7830209      -3.1955619      -2.9696151                         
 INPUT CARD>N   7.0      -0.5332440      -3.1796453      -3.5102350                         
 INPUT CARD>C   6.0      -1.9212609      -3.1578083       4.6290734                         
 INPUT CARD>C   6.0      -0.5653434      -3.5125724       4.7413437                         
 INPUT CARD>C   6.0       0.1444173      -4.0204566       3.6456531                         
 INPUT CARD>C   6.0      -0.5275570      -4.1684831       2.4346404                         
 INPUT CARD>C   6.0      -2.6102820      -3.3005412       3.4178297                         
 INPUT CARD>C   6.0      -1.9180953      -3.8058108       2.3198372                         
 INPUT CARD>C   6.0      -0.0702763      -4.5816173       1.1144122                         
 INPUT CARD>N   7.0      -1.2394537      -4.6947816       0.3366508                         
 INPUT CARD>H   1.0      -2.4487807      -2.7616792       5.5017455                         
   20000000 WORDS OF MEMORY AVAILABLE

     BASIS OPTIONS
     -------------
     GBASIS=RM1          IGAUSS=       0      POLAR=NONE    
     NDFUNC=       0     NFFUNC=       0     DIFFSP=       F
     NPFUNC=       0      DIFFS=       F     BASNAM=        


     RUN TITLE
     ---------
 Molecule specification                                                          

 THE POINT GROUP OF THE MOLECULE IS CN      
 THE ORDER OF THE PRINCIPAL AXIS IS     1

 ATOM      ATOMIC                      COORDINATES (BOHR)
           CHARGE         X                   Y                   Z
 C           6.0     8.6450322771       -5.8500175592       -4.0873397394
 C           6.0     7.6621493192       -5.0423715378       -6.4193967236
 C           6.0     5.1150318799       -5.4177147716       -7.0371732824
 C           6.0     3.5679349456       -6.6162045043       -5.2777384213
 C           6.0     7.1115674482       -7.0567500877       -2.2976569793
 C           6.0     4.5752138881       -7.4413085703       -2.8843877967
 C           6.0     0.8623670059       -7.1313351158       -5.2636593958
 N           7.0     0.4499845758       -8.6473868757       -3.1171649998
 H           1.0    10.6414763826       -5.5287917313       -3.6572617262
 H           1.0     8.9045266152       -4.1010846614       -7.7774375333
 H           1.0     4.3386647920       -4.7848595223       -8.8448084394
 H           1.0     7.8638681198       -7.6788450483       -0.4762232321
 C           6.0     2.4827667892       -8.4537458979       -1.4069289658
 N           7.0     2.2570004695       -8.6606119341        1.1474520132
 C           6.0    -8.0673279249       -0.9932636007       -7.7156529421
 C           6.0    -9.6611190435       -1.1372301074       -5.5960024817
 C           6.0    -9.1872613703       -2.8575151373       -3.6387354195
 C           6.0    -7.0896991611       -4.4323611859       -3.8433109188
 C           6.0    -5.9503673004       -2.5676357061       -7.9485236866
 C           6.0    -5.4579451481       -4.2889003699       -6.0206569813
 C           6.0    -5.9923309336       -6.2637056010       -2.1017538105
 N           7.0    -4.0718061918       -7.4812558659       -3.4882493581
 H           1.0    -8.4812914887        0.3730349335       -9.2109095903
 H           1.0   -11.2989657220        0.1175226261       -5.4655301303
 H           1.0   -10.4141810857       -2.9681574600       -1.9794855155
 H           1.0    -4.6989049578       -2.4564427172       -9.5893648249
 B           5.0    -2.2209337262       -9.3106340212       -2.2220439403
 C           6.0    -3.3694209314       -6.0387363678       -5.6117588280
 N           7.0    -1.0076850446       -6.0086583551       -6.6333823025
 C           6.0    -3.6306566519       -5.9673924088        8.7476803031
 C           6.0    -1.0683441150       -6.6377993480        8.9598404066
 C           6.0     0.2729091249       -7.5975613195        6.8892854053
 C           6.0    -0.9969381729       -7.8772908434        4.6008032346
 C           6.0    -4.9327177307       -6.2371184792        6.4587616057
 C           6.0    -3.6246745353       -7.1919395731        4.3838566441
 C           6.0    -0.1328029504       -8.6580012776        2.1059336954
 N           7.0    -2.3422278675       -8.8718507962        0.6361777655
 H           1.0    -4.6275245270       -5.2188169540       10.3967914492
 H           1.0    -0.1011645910       -6.4039268598       10.7719141520
 H           1.0     2.2683592345       -8.1130475775        7.0408178079
 H           1.0    -6.9232469938       -5.7110535352        6.2808582659
 C           6.0    -4.3662253117       -7.5593480365        1.7579637094
 N           7.0    -6.2869086016       -6.4507194988        0.4464286784
 CL         17.0    -3.0213377508      -12.6646805199       -3.0193378538
 C           6.0     5.0292543828        4.7983725749        6.5428634828
 C           6.0     4.3058778571        2.1410132458        6.4783607098
 C           6.0     5.6706595083        0.9384579566        4.4089491817
 C           6.0     7.2363587163        2.8523624214        3.1938175771
 C           6.0     6.8400969717        5.2378317548        4.5134211711
 C           6.0     6.7795227500        7.4957379700        3.1613912019
 C           6.0     7.1114145693        7.4733876138        0.4266831205
 C           6.0     7.4894971499        5.1938011393       -0.8349291294
 C           6.0     7.5540004899        2.8310238245        0.5802558603
 C           6.0     6.3207065398        0.8947493504       -0.9423379420
 C           6.0     4.8222375464       -0.9301471307        0.2204675280
 C           6.0     4.4911297744       -0.9121302941        2.9554222186
 C           6.0     1.8922117333       -1.6410121585        3.5042475894
 C           6.0     0.5875583284       -0.4955116653        5.4826480242
 C           6.0     1.8230037315        1.4400751376        7.0036671178
 C           6.0    -0.0517027141        3.3633775877        7.6173456168
 C           6.0    -2.4455083847        2.6160665486        6.4763923712
 C           6.0    -2.0502139908        0.2306266949        5.1571531163
 C           6.0    -3.2677498938       -0.2205833682        2.8674176794
 C           6.0    -1.8996564978       -1.4136048008        0.7977272277
 C           6.0     0.6187163195       -2.1071790248        1.1086217347
 C           6.0     2.4269735743       -1.6664629881       -0.9182256053
 C           6.0     1.6381530031       -0.5561053511       -3.1694282065
 C           6.0     3.2063218939        1.3489196692       -4.3897830138
 C           6.0     5.4938489971        2.0605781930       -3.2983188573
 C           6.0     6.2160040038        4.7182648226       -3.2312256478
 C           6.0     4.6199278286        6.5425339146       -4.2585923776
 C           6.0     4.2243352359        8.9277061831       -2.9381716660
 C           6.0     5.4419803651        9.3826429748       -0.6491248452
 C           6.0     4.0786473778       10.5853195844        1.4208507661
 C           6.0     1.5584749745       11.2797385159        1.1095505350
 C           6.0     0.2842510713       10.8038546786       -1.2862123248
 C           6.0     1.5869036343        9.6544396180       -3.2639543791
 C           6.0     0.3517709808        7.7185808836       -4.7857715040
 C           6.0     2.2266667769        5.7959012871       -5.4012197314
 C           6.0     1.5351419608        3.2570224863       -5.4666734145
 C           6.0    -1.0642895189        2.5254759193       -4.9175530576
 C           6.0    -0.9967779241        0.1695458377       -3.4952774381
 C           6.0    -2.7238344091       -0.2471661436       -1.5544772591
 C           6.0    -4.6043631005        1.6675835956       -0.9437391738
 C           6.0    -4.9392310492        1.6859880149        1.7907510222
 C           6.0    -5.3158487143        3.9655901742        3.0518169523
 C           6.0    -4.0403887413        4.4406918540        5.4473471869
 C           6.0    -3.3154696324        7.0976248608        5.5120820182
 C           6.0    -4.1422578222        8.2638785138        3.1568651192
 C           6.0    -5.3782778910        6.3281724693        1.6356621552
 C           6.0    -5.0618678408        6.3072494231       -0.9780210709
 C           6.0    -4.6677354394        3.9226399150       -2.2995463273
 C           6.0    -2.8570162496        4.3615937823       -4.3298318348
 C           6.0    -2.1314457521        7.0183442416       -4.2622576901
 C           6.0    -3.4945013276        8.2203673840       -2.1916658391
 C           6.0    -2.3139558659       10.0704835812       -0.7375441793
 C           6.0    -2.6453983084       10.0926430750        1.9972198380
 C           6.0    -0.2521470834       10.8402228332        3.1388276846
 C           6.0     0.5377780326        9.7259262513        5.3892940486
 C           6.0    -1.0287617255        7.8120524001        6.6029726429
 C           6.0     0.6403812720        5.9027751183        7.6791683804
 C           6.0     3.2384740698        6.6362495838        7.1300457558
 C           6.0     3.1750898256        8.9992417604        5.7150472821
 C           6.0     4.9052913815        9.4191454889        3.7758713226



 PLEASE NOTE:
 SEMI-EMPIRICAL CALCULATIONS ACTUALLY USE VALENCE-ONLY SLATER TYPE ORBITALS.
 FOR PLOTTING PURPOSES, STO-NG EXPANSIONS CAN APPROXIMATE THE STO FUNCTIONS.
 THE GTO BASIS LISTED BELOW USES N=  6 EXPANSIONS OF THE VALENCE STO BASIS.



     ATOMIC BASIS SET
     ----------------
 THE CONTRACTED PRIMITIVE FUNCTIONS HAVE BEEN UNNORMALIZED
 THE CONTRACTED BASIS FUNCTIONS ARE NOW NORMALIZED TO UNITY

  SHELL TYPE  PRIMITIVE        EXPONENT          CONTRACTION COEFFICIENT(S)

 C         
 
      1   S       1            94.7710456   -0.004151277819
      1   S       2            17.3800462   -0.020670241480
      1   S       3             4.8841679   -0.051503033370
      1   S       4             0.6984469    0.334627117400
      1   S       5             0.3169981    0.562106130100
      1   S       6             0.1511746    0.171299469700
 
      2   P       7            18.3494739    0.007924233646
      2   P       8             4.7851696    0.051441048250
      2   P       9             1.7121793    0.189840006000
      2   P      10             0.7157237    0.404986319100
      2   P      11             0.3272776    0.401236286100
      2   P      12             0.1547253    0.105185518900

 C         
 
      3   S      13            94.7710456   -0.004151277819
      3   S      14            17.3800462   -0.020670241480
      3   S      15             4.8841679   -0.051503033370
      3   S      16             0.6984469    0.334627117400
      3   S      17             0.3169981    0.562106130100
      3   S      18             0.1511746    0.171299469700
 
      4   P      19            18.3494739    0.007924233646
      4   P      20             4.7851696    0.051441048250
      4   P      21             1.7121793    0.189840006000
      4   P      22             0.7157237    0.404986319100
      4   P      23             0.3272776    0.401236286100
      4   P      24             0.1547253    0.105185518900

 C         
 
      5   S      25            94.7710456   -0.004151277819
      5   S      26            17.3800462   -0.020670241480
      5   S      27             4.8841679   -0.051503033370
      5   S      28             0.6984469    0.334627117400
      5   S      29             0.3169981    0.562106130100
      5   S      30             0.1511746    0.171299469700
 
      6   P      31            18.3494739    0.007924233646
      6   P      32             4.7851696    0.051441048250
      6   P      33             1.7121793    0.189840006000
      6   P      34             0.7157237    0.404986319100
      6   P      35             0.3272776    0.401236286100
      6   P      36             0.1547253    0.105185518900

 C         
 
      7   S      37            94.7710456   -0.004151277819
      7   S      38            17.3800462   -0.020670241480
      7   S      39             4.8841679   -0.051503033370
      7   S      40             0.6984469    0.334627117400
      7   S      41             0.3169981    0.562106130100
      7   S      42             0.1511746    0.171299469700
 
      8   P      43            18.3494739    0.007924233646
      8   P      44             4.7851696    0.051441048250
      8   P      45             1.7121793    0.189840006000
      8   P      46             0.7157237    0.404986319100
      8   P      47             0.3272776    0.401236286100
      8   P      48             0.1547253    0.105185518900

 C         
 
      9   S      49            94.7710456   -0.004151277819
      9   S      50            17.3800462   -0.020670241480
      9   S      51             4.8841679   -0.051503033370
      9   S      52             0.6984469    0.334627117400
      9   S      53             0.3169981    0.562106130100
      9   S      54             0.1511746    0.171299469700
 
     10   P      55            18.3494739    0.007924233646
     10   P      56             4.7851696    0.051441048250
     10   P      57             1.7121793    0.189840006000
     10   P      58             0.7157237    0.404986319100
     10   P      59             0.3272776    0.401236286100
     10   P      60             0.1547253    0.105185518900

 C         
 
     11   S      61            94.7710456   -0.004151277819
     11   S      62            17.3800462   -0.020670241480
     11   S      63             4.8841679   -0.051503033370
     11   S      64             0.6984469    0.334627117400
     11   S      65             0.3169981    0.562106130100
     11   S      66             0.1511746    0.171299469700
 
     12   P      67            18.3494739    0.007924233646
     12   P      68             4.7851696    0.051441048250
     12   P      69             1.7121793    0.189840006000
     12   P      70             0.7157237    0.404986319100
     12   P      71             0.3272776    0.401236286100
     12   P      72             0.1547253    0.105185518900

 C         
 
     13   S      73            94.7710456   -0.004151277819
     13   S      74            17.3800462   -0.020670241480
     13   S      75             4.8841679   -0.051503033370
     13   S      76             0.6984469    0.334627117400
     13   S      77             0.3169981    0.562106130100
     13   S      78             0.1511746    0.171299469700
 
     14   P      79            18.3494739    0.007924233646
     14   P      80             4.7851696    0.051441048250
     14   P      81             1.7121793    0.189840006000
     14   P      82             0.7157237    0.404986319100
     14   P      83             0.3272776    0.401236286100
     14   P      84             0.1547253    0.105185518900

 N         
 
     15   S      85           156.0910110   -0.004151277819
     15   S      86            28.6255044   -0.020670241480
     15   S      87             8.0443843   -0.051503033370
     15   S      88             1.1503648    0.334627117400
     15   S      89             0.5221063    0.562106130100
     15   S      90             0.2489895    0.171299469700
 
     16   P      91            22.9624927    0.007924233646
     16   P      92             5.9881511    0.051441048250
     16   P      93             2.1426175    0.189840006000
     16   P      94             0.8956551    0.404986319100
     16   P      95             0.4095545    0.401236286100
     16   P      96             0.1936229    0.105185518900

 H         
 
     17   S      97            27.0809635    0.009163596280
     17   S      98             4.9652650    0.049361492940
     17   S      99             1.3891022    0.168538304900
     17   S     100             0.4771941    0.370562799700
     17   S     101             0.1853084    0.416491529800
     17   S     102             0.0763202    0.130334084100

 H         
 
     18   S     103            27.0809635    0.009163596280
     18   S     104             4.9652650    0.049361492940
     18   S     105             1.3891022    0.168538304900
     18   S     106             0.4771941    0.370562799700
     18   S     107             0.1853084    0.416491529800
     18   S     108             0.0763202    0.130334084100

 H         
 
     19   S     109            27.0809635    0.009163596280
     19   S     110             4.9652650    0.049361492940
     19   S     111             1.3891022    0.168538304900
     19   S     112             0.4771941    0.370562799700
     19   S     113             0.1853084    0.416491529800
     19   S     114             0.0763202    0.130334084100

 H         
 
     20   S     115            27.0809635    0.009163596280
     20   S     116             4.9652650    0.049361492940
     20   S     117             1.3891022    0.168538304900
     20   S     118             0.4771941    0.370562799700
     20   S     119             0.1853084    0.416491529800
     20   S     120             0.0763202    0.130334084100

 C         
 
     21   S     121            94.7710456   -0.004151277819
     21   S     122            17.3800462   -0.020670241480
     21   S     123             4.8841679   -0.051503033370
     21   S     124             0.6984469    0.334627117400
     21   S     125             0.3169981    0.562106130100
     21   S     126             0.1511746    0.171299469700
 
     22   P     127            18.3494739    0.007924233646
     22   P     128             4.7851696    0.051441048250
     22   P     129             1.7121793    0.189840006000
     22   P     130             0.7157237    0.404986319100
     22   P     131             0.3272776    0.401236286100
     22   P     132             0.1547253    0.105185518900

 N         
 
     23   S     133           156.0910110   -0.004151277819
     23   S     134            28.6255044   -0.020670241480
     23   S     135             8.0443843   -0.051503033370
     23   S     136             1.1503648    0.334627117400
     23   S     137             0.5221063    0.562106130100
     23   S     138             0.2489895    0.171299469700
 
     24   P     139            22.9624927    0.007924233646
     24   P     140             5.9881511    0.051441048250
     24   P     141             2.1426175    0.189840006000
     24   P     142             0.8956551    0.404986319100
     24   P     143             0.4095545    0.401236286100
     24   P     144             0.1936229    0.105185518900

 C         
 
     25   S     145            94.7710456   -0.004151277819
     25   S     146            17.3800462   -0.020670241480
     25   S     147             4.8841679   -0.051503033370
     25   S     148             0.6984469    0.334627117400
     25   S     149             0.3169981    0.562106130100
     25   S     150             0.1511746    0.171299469700
 
     26   P     151            18.3494739    0.007924233646
     26   P     152             4.7851696    0.051441048250
     26   P     153             1.7121793    0.189840006000
     26   P     154             0.7157237    0.404986319100
     26   P     155             0.3272776    0.401236286100
     26   P     156             0.1547253    0.105185518900

 C         
 
     27   S     157            94.7710456   -0.004151277819
     27   S     158            17.3800462   -0.020670241480
     27   S     159             4.8841679   -0.051503033370
     27   S     160             0.6984469    0.334627117400
     27   S     161             0.3169981    0.562106130100
     27   S     162             0.1511746    0.171299469700
 
     28   P     163            18.3494739    0.007924233646
     28   P     164             4.7851696    0.051441048250
     28   P     165             1.7121793    0.189840006000
     28   P     166             0.7157237    0.404986319100
     28   P     167             0.3272776    0.401236286100
     28   P     168             0.1547253    0.105185518900

 C         
 
     29   S     169            94.7710456   -0.004151277819
     29   S     170            17.3800462   -0.020670241480
     29   S     171             4.8841679   -0.051503033370
     29   S     172             0.6984469    0.334627117400
     29   S     173             0.3169981    0.562106130100
     29   S     174             0.1511746    0.171299469700
 
     30   P     175            18.3494739    0.007924233646
     30   P     176             4.7851696    0.051441048250
     30   P     177             1.7121793    0.189840006000
     30   P     178             0.7157237    0.404986319100
     30   P     179             0.3272776    0.401236286100
     30   P     180             0.1547253    0.105185518900

 C         
 
     31   S     181            94.7710456   -0.004151277819
     31   S     182            17.3800462   -0.020670241480
     31   S     183             4.8841679   -0.051503033370
     31   S     184             0.6984469    0.334627117400
     31   S     185             0.3169981    0.562106130100
     31   S     186             0.1511746    0.171299469700
 
     32   P     187            18.3494739    0.007924233646
     32   P     188             4.7851696    0.051441048250
     32   P     189             1.7121793    0.189840006000
     32   P     190             0.7157237    0.404986319100
     32   P     191             0.3272776    0.401236286100
     32   P     192             0.1547253    0.105185518900

 C         
 
     33   S     193            94.7710456   -0.004151277819
     33   S     194            17.3800462   -0.020670241480
     33   S     195             4.8841679   -0.051503033370
     33   S     196             0.6984469    0.334627117400
     33   S     197             0.3169981    0.562106130100
     33   S     198             0.1511746    0.171299469700
 
     34   P     199            18.3494739    0.007924233646
     34   P     200             4.7851696    0.051441048250
     34   P     201             1.7121793    0.189840006000
     34   P     202             0.7157237    0.404986319100
     34   P     203             0.3272776    0.401236286100
     34   P     204             0.1547253    0.105185518900

 C         
 
     35   S     205            94.7710456   -0.004151277819
     35   S     206            17.3800462   -0.020670241480
     35   S     207             4.8841679   -0.051503033370
     35   S     208             0.6984469    0.334627117400
     35   S     209             0.3169981    0.562106130100
     35   S     210             0.1511746    0.171299469700
 
     36   P     211            18.3494739    0.007924233646
     36   P     212             4.7851696    0.051441048250
     36   P     213             1.7121793    0.189840006000
     36   P     214             0.7157237    0.404986319100
     36   P     215             0.3272776    0.401236286100
     36   P     216             0.1547253    0.105185518900

 C         
 
     37   S     217            94.7710456   -0.004151277819
     37   S     218            17.3800462   -0.020670241480
     37   S     219             4.8841679   -0.051503033370
     37   S     220             0.6984469    0.334627117400
     37   S     221             0.3169981    0.562106130100
     37   S     222             0.1511746    0.171299469700
 
     38   P     223            18.3494739    0.007924233646
     38   P     224             4.7851696    0.051441048250
     38   P     225             1.7121793    0.189840006000
     38   P     226             0.7157237    0.404986319100
     38   P     227             0.3272776    0.401236286100
     38   P     228             0.1547253    0.105185518900

 N         
 
     39   S     229           156.0910110   -0.004151277819
     39   S     230            28.6255044   -0.020670241480
     39   S     231             8.0443843   -0.051503033370
     39   S     232             1.1503648    0.334627117400
     39   S     233             0.5221063    0.562106130100
     39   S     234             0.2489895    0.171299469700
 
     40   P     235            22.9624927    0.007924233646
     40   P     236             5.9881511    0.051441048250
     40   P     237             2.1426175    0.189840006000
     40   P     238             0.8956551    0.404986319100
     40   P     239             0.4095545    0.401236286100
     40   P     240             0.1936229    0.105185518900

 H         
 
     41   S     241            27.0809635    0.009163596280
     41   S     242             4.9652650    0.049361492940
     41   S     243             1.3891022    0.168538304900
     41   S     244             0.4771941    0.370562799700
     41   S     245             0.1853084    0.416491529800
     41   S     246             0.0763202    0.130334084100

 H         
 
     42   S     247            27.0809635    0.009163596280
     42   S     248             4.9652650    0.049361492940
     42   S     249             1.3891022    0.168538304900
     42   S     250             0.4771941    0.370562799700
     42   S     251             0.1853084    0.416491529800
     42   S     252             0.0763202    0.130334084100

 H         
 
     43   S     253            27.0809635    0.009163596280
     43   S     254             4.9652650    0.049361492940
     43   S     255             1.3891022    0.168538304900
     43   S     256             0.4771941    0.370562799700
     43   S     257             0.1853084    0.416491529800
     43   S     258             0.0763202    0.130334084100

 H         
 
     44   S     259            27.0809635    0.009163596280
     44   S     260             4.9652650    0.049361492940
     44   S     261             1.3891022    0.168538304900
     44   S     262             0.4771941    0.370562799700
     44   S     263             0.1853084    0.416491529800
     44   S     264             0.0763202    0.130334084100

 B         
 
     45   S     265            71.9146217   -0.004151277819
     45   S     266            13.1884105   -0.020670241480
     45   S     267             3.7062279   -0.051503033370
     45   S     268             0.5299988    0.334627117400
     45   S     269             0.2405461    0.562106130100
     45   S     270             0.1147151    0.171299469700
 
     46   P     271            14.1966893    0.007924233646
     46   P     272             3.7022079    0.051441048250
     46   P     273             1.3246853    0.189840006000
     46   P     274             0.5537438    0.404986319100
     46   P     275             0.2532094    0.401236286100
     46   P     276             0.1197085    0.105185518900

 C         
 
     47   S     277            94.7710456   -0.004151277819
     47   S     278            17.3800462   -0.020670241480
     47   S     279             4.8841679   -0.051503033370
     47   S     280             0.6984469    0.334627117400
     47   S     281             0.3169981    0.562106130100
     47   S     282             0.1511746    0.171299469700
 
     48   P     283            18.3494739    0.007924233646
     48   P     284             4.7851696    0.051441048250
     48   P     285             1.7121793    0.189840006000
     48   P     286             0.7157237    0.404986319100
     48   P     287             0.3272776    0.401236286100
     48   P     288             0.1547253    0.105185518900

 N         
 
     49   S     289           156.0910110   -0.004151277819
     49   S     290            28.6255044   -0.020670241480
     49   S     291             8.0443843   -0.051503033370
     49   S     292             1.1503648    0.334627117400
     49   S     293             0.5221063    0.562106130100
     49   S     294             0.2489895    0.171299469700
 
     50   P     295            22.9624927    0.007924233646
     50   P     296             5.9881511    0.051441048250
     50   P     297             2.1426175    0.189840006000
     50   P     298             0.8956551    0.404986319100
     50   P     299             0.4095545    0.401236286100
     50   P     300             0.1936229    0.105185518900

 C         
 
     51   S     301            94.7710456   -0.004151277819
     51   S     302            17.3800462   -0.020670241480
     51   S     303             4.8841679   -0.051503033370
     51   S     304             0.6984469    0.334627117400
     51   S     305             0.3169981    0.562106130100
     51   S     306             0.1511746    0.171299469700
 
     52   P     307            18.3494739    0.007924233646
     52   P     308             4.7851696    0.051441048250
     52   P     309             1.7121793    0.189840006000
     52   P     310             0.7157237    0.404986319100
     52   P     311             0.3272776    0.401236286100
     52   P     312             0.1547253    0.105185518900

 C         
 
     53   S     313            94.7710456   -0.004151277819
     53   S     314            17.3800462   -0.020670241480
     53   S     315             4.8841679   -0.051503033370
     53   S     316             0.6984469    0.334627117400
     53   S     317             0.3169981    0.562106130100
     53   S     318             0.1511746    0.171299469700
 
     54   P     319            18.3494739    0.007924233646
     54   P     320             4.7851696    0.051441048250
     54   P     321             1.7121793    0.189840006000
     54   P     322             0.7157237    0.404986319100
     54   P     323             0.3272776    0.401236286100
     54   P     324             0.1547253    0.105185518900

 C         
 
     55   S     325            94.7710456   -0.004151277819
     55   S     326            17.3800462   -0.020670241480
     55   S     327             4.8841679   -0.051503033370
     55   S     328             0.6984469    0.334627117400
     55   S     329             0.3169981    0.562106130100
     55   S     330             0.1511746    0.171299469700
 
     56   P     331            18.3494739    0.007924233646
     56   P     332             4.7851696    0.051441048250
     56   P     333             1.7121793    0.189840006000
     56   P     334             0.7157237    0.404986319100
     56   P     335             0.3272776    0.401236286100
     56   P     336             0.1547253    0.105185518900

 C         
 
     57   S     337            94.7710456   -0.004151277819
     57   S     338            17.3800462   -0.020670241480
     57   S     339             4.8841679   -0.051503033370
     57   S     340             0.6984469    0.334627117400
     57   S     341             0.3169981    0.562106130100
     57   S     342             0.1511746    0.171299469700
 
     58   P     343            18.3494739    0.007924233646
     58   P     344             4.7851696    0.051441048250
     58   P     345             1.7121793    0.189840006000
     58   P     346             0.7157237    0.404986319100
     58   P     347             0.3272776    0.401236286100
     58   P     348             0.1547253    0.105185518900

 C         
 
     59   S     349            94.7710456   -0.004151277819
     59   S     350            17.3800462   -0.020670241480
     59   S     351             4.8841679   -0.051503033370
     59   S     352             0.6984469    0.334627117400
     59   S     353             0.3169981    0.562106130100
     59   S     354             0.1511746    0.171299469700
 
     60   P     355            18.3494739    0.007924233646
     60   P     356             4.7851696    0.051441048250
     60   P     357             1.7121793    0.189840006000
     60   P     358             0.7157237    0.404986319100
     60   P     359             0.3272776    0.401236286100
     60   P     360             0.1547253    0.105185518900

 C         
 
     61   S     361            94.7710456   -0.004151277819
     61   S     362            17.3800462   -0.020670241480
     61   S     363             4.8841679   -0.051503033370
     61   S     364             0.6984469    0.334627117400
     61   S     365             0.3169981    0.562106130100
     61   S     366             0.1511746    0.171299469700
 
     62   P     367            18.3494739    0.007924233646
     62   P     368             4.7851696    0.051441048250
     62   P     369             1.7121793    0.189840006000
     62   P     370             0.7157237    0.404986319100
     62   P     371             0.3272776    0.401236286100
     62   P     372             0.1547253    0.105185518900

 C         
 
     63   S     373            94.7710456   -0.004151277819
     63   S     374            17.3800462   -0.020670241480
     63   S     375             4.8841679   -0.051503033370
     63   S     376             0.6984469    0.334627117400
     63   S     377             0.3169981    0.562106130100
     63   S     378             0.1511746    0.171299469700
 
     64   P     379            18.3494739    0.007924233646
     64   P     380             4.7851696    0.051441048250
     64   P     381             1.7121793    0.189840006000
     64   P     382             0.7157237    0.404986319100
     64   P     383             0.3272776    0.401236286100
     64   P     384             0.1547253    0.105185518900

 N         
 
     65   S     385           156.0910110   -0.004151277819
     65   S     386            28.6255044   -0.020670241480
     65   S     387             8.0443843   -0.051503033370
     65   S     388             1.1503648    0.334627117400
     65   S     389             0.5221063    0.562106130100
     65   S     390             0.2489895    0.171299469700
 
     66   P     391            22.9624927    0.007924233646
     66   P     392             5.9881511    0.051441048250
     66   P     393             2.1426175    0.189840006000
     66   P     394             0.8956551    0.404986319100
     66   P     395             0.4095545    0.401236286100
     66   P     396             0.1936229    0.105185518900

 H         
 
     67   S     397            27.0809635    0.009163596280
     67   S     398             4.9652650    0.049361492940
     67   S     399             1.3891022    0.168538304900
     67   S     400             0.4771941    0.370562799700
     67   S     401             0.1853084    0.416491529800
     67   S     402             0.0763202    0.130334084100

 H         
 
     68   S     403            27.0809635    0.009163596280
     68   S     404             4.9652650    0.049361492940
     68   S     405             1.3891022    0.168538304900
     68   S     406             0.4771941    0.370562799700
     68   S     407             0.1853084    0.416491529800
     68   S     408             0.0763202    0.130334084100

 H         
 
     69   S     409            27.0809635    0.009163596280
     69   S     410             4.9652650    0.049361492940
     69   S     411             1.3891022    0.168538304900
     69   S     412             0.4771941    0.370562799700
     69   S     413             0.1853084    0.416491529800
     69   S     414             0.0763202    0.130334084100

 H         
 
     70   S     415            27.0809635    0.009163596280
     70   S     416             4.9652650    0.049361492940
     70   S     417             1.3891022    0.168538304900
     70   S     418             0.4771941    0.370562799700
     70   S     419             0.1853084    0.416491529800
     70   S     420             0.0763202    0.130334084100

 C         
 
     71   S     421            94.7710456   -0.004151277819
     71   S     422            17.3800462   -0.020670241480
     71   S     423             4.8841679   -0.051503033370
     71   S     424             0.6984469    0.334627117400
     71   S     425             0.3169981    0.562106130100
     71   S     426             0.1511746    0.171299469700
 
     72   P     427            18.3494739    0.007924233646
     72   P     428             4.7851696    0.051441048250
     72   P     429             1.7121793    0.189840006000
     72   P     430             0.7157237    0.404986319100
     72   P     431             0.3272776    0.401236286100
     72   P     432             0.1547253    0.105185518900

 N         
 
     73   S     433           156.0910110   -0.004151277819
     73   S     434            28.6255044   -0.020670241480
     73   S     435             8.0443843   -0.051503033370
     73   S     436             1.1503648    0.334627117400
     73   S     437             0.5221063    0.562106130100
     73   S     438             0.2489895    0.171299469700
 
     74   P     439            22.9624927    0.007924233646
     74   P     440             5.9881511    0.051441048250
     74   P     441             2.1426175    0.189840006000
     74   P     442             0.8956551    0.404986319100
     74   P     443             0.4095545    0.401236286100
     74   P     444             0.1936229    0.105185518900

 CL        
 
     75   S     445            48.8910285   -0.006775596947
     75   S     446            13.7434452   -0.056393257790
     75   S     447             5.3675787   -0.158785608600
     75   S     448             1.2901081    0.553452765100
     75   S     449             0.7166094    0.501535102000
     75   S     450             0.4070092    0.072236336740
 
     76   P     451            18.2530606   -0.003329929840
     76   P     452             4.8195338   -0.014194883400
     76   P     453             0.8082125    0.163939577000
     76   P     454             0.4068109    0.448535825600
     76   P     455             0.2184199    0.390881305000
     76   P     456             0.1191748    0.074114562320

 C         
 
     77   S     457            94.7710456   -0.004151277819
     77   S     458            17.3800462   -0.020670241480
     77   S     459             4.8841679   -0.051503033370
     77   S     460             0.6984469    0.334627117400
     77   S     461             0.3169981    0.562106130100
     77   S     462             0.1511746    0.171299469700
 
     78   P     463            18.3494739    0.007924233646
     78   P     464             4.7851696    0.051441048250
     78   P     465             1.7121793    0.189840006000
     78   P     466             0.7157237    0.404986319100
     78   P     467             0.3272776    0.401236286100
     78   P     468             0.1547253    0.105185518900

 C         
 
     79   S     469            94.7710456   -0.004151277819
     79   S     470            17.3800462   -0.020670241480
     79   S     471             4.8841679   -0.051503033370
     79   S     472             0.6984469    0.334627117400
     79   S     473             0.3169981    0.562106130100
     79   S     474             0.1511746    0.171299469700
 
     80   P     475            18.3494739    0.007924233646
     80   P     476             4.7851696    0.051441048250
     80   P     477             1.7121793    0.189840006000
     80   P     478             0.7157237    0.404986319100
     80   P     479             0.3272776    0.401236286100
     80   P     480             0.1547253    0.105185518900

 C         
 
     81   S     481            94.7710456   -0.004151277819
     81   S     482            17.3800462   -0.020670241480
     81   S     483             4.8841679   -0.051503033370
     81   S     484             0.6984469    0.334627117400
     81   S     485             0.3169981    0.562106130100
     81   S     486             0.1511746    0.171299469700
 
     82   P     487            18.3494739    0.007924233646
     82   P     488             4.7851696    0.051441048250
     82   P     489             1.7121793    0.189840006000
     82   P     490             0.7157237    0.404986319100
     82   P     491             0.3272776    0.401236286100
     82   P     492             0.1547253    0.105185518900

 C         
 
     83   S     493            94.7710456   -0.004151277819
     83   S     494            17.3800462   -0.020670241480
     83   S     495             4.8841679   -0.051503033370
     83   S     496             0.6984469    0.334627117400
     83   S     497             0.3169981    0.562106130100
     83   S     498             0.1511746    0.171299469700
 
     84   P     499            18.3494739    0.007924233646
     84   P     500             4.7851696    0.051441048250
     84   P     501             1.7121793    0.189840006000
     84   P     502             0.7157237    0.404986319100
     84   P     503             0.3272776    0.401236286100
     84   P     504             0.1547253    0.105185518900

 C         
 
     85   S     505            94.7710456   -0.004151277819
     85   S     506            17.3800462   -0.020670241480
     85   S     507             4.8841679   -0.051503033370
     85   S     508             0.6984469    0.334627117400
     85   S     509             0.3169981    0.562106130100
     85   S     510             0.1511746    0.171299469700
 
     86   P     511            18.3494739    0.007924233646
     86   P     512             4.7851696    0.051441048250
     86   P     513             1.7121793    0.189840006000
     86   P     514             0.7157237    0.404986319100
     86   P     515             0.3272776    0.401236286100
     86   P     516             0.1547253    0.105185518900

 C         
 
     87   S     517            94.7710456   -0.004151277819
     87   S     518            17.3800462   -0.020670241480
     87   S     519             4.8841679   -0.051503033370
     87   S     520             0.6984469    0.334627117400
     87   S     521             0.3169981    0.562106130100
     87   S     522             0.1511746    0.171299469700
 
     88   P     523            18.3494739    0.007924233646
     88   P     524             4.7851696    0.051441048250
     88   P     525             1.7121793    0.189840006000
     88   P     526             0.7157237    0.404986319100
     88   P     527             0.3272776    0.401236286100
     88   P     528             0.1547253    0.105185518900

 C         
 
     89   S     529            94.7710456   -0.004151277819
     89   S     530            17.3800462   -0.020670241480
     89   S     531             4.8841679   -0.051503033370
     89   S     532             0.6984469    0.334627117400
     89   S     533             0.3169981    0.562106130100
     89   S     534             0.1511746    0.171299469700
 
     90   P     535            18.3494739    0.007924233646
     90   P     536             4.7851696    0.051441048250
     90   P     537             1.7121793    0.189840006000
     90   P     538             0.7157237    0.404986319100
     90   P     539             0.3272776    0.401236286100
     90   P     540             0.1547253    0.105185518900

 C         
 
     91   S     541            94.7710456   -0.004151277819
     91   S     542            17.3800462   -0.020670241480
     91   S     543             4.8841679   -0.051503033370
     91   S     544             0.6984469    0.334627117400
     91   S     545             0.3169981    0.562106130100
     91   S     546             0.1511746    0.171299469700
 
     92   P     547            18.3494739    0.007924233646
     92   P     548             4.7851696    0.051441048250
     92   P     549             1.7121793    0.189840006000
     92   P     550             0.7157237    0.404986319100
     92   P     551             0.3272776    0.401236286100
     92   P     552             0.1547253    0.105185518900

 C         
 
     93   S     553            94.7710456   -0.004151277819
     93   S     554            17.3800462   -0.020670241480
     93   S     555             4.8841679   -0.051503033370
     93   S     556             0.6984469    0.334627117400
     93   S     557             0.3169981    0.562106130100
     93   S     558             0.1511746    0.171299469700
 
     94   P     559            18.3494739    0.007924233646
     94   P     560             4.7851696    0.051441048250
     94   P     561             1.7121793    0.189840006000
     94   P     562             0.7157237    0.404986319100
     94   P     563             0.3272776    0.401236286100
     94   P     564             0.1547253    0.105185518900

 C         
 
     95   S     565            94.7710456   -0.004151277819
     95   S     566            17.3800462   -0.020670241480
     95   S     567             4.8841679   -0.051503033370
     95   S     568             0.6984469    0.334627117400
     95   S     569             0.3169981    0.562106130100
     95   S     570             0.1511746    0.171299469700
 
     96   P     571            18.3494739    0.007924233646
     96   P     572             4.7851696    0.051441048250
     96   P     573             1.7121793    0.189840006000
     96   P     574             0.7157237    0.404986319100
     96   P     575             0.3272776    0.401236286100
     96   P     576             0.1547253    0.105185518900

 C         
 
     97   S     577            94.7710456   -0.004151277819
     97   S     578            17.3800462   -0.020670241480
     97   S     579             4.8841679   -0.051503033370
     97   S     580             0.6984469    0.334627117400
     97   S     581             0.3169981    0.562106130100
     97   S     582             0.1511746    0.171299469700
 
     98   P     583            18.3494739    0.007924233646
     98   P     584             4.7851696    0.051441048250
     98   P     585             1.7121793    0.189840006000
     98   P     586             0.7157237    0.404986319100
     98   P     587             0.3272776    0.401236286100
     98   P     588             0.1547253    0.105185518900

 C         
 
     99   S     589            94.7710456   -0.004151277819
     99   S     590            17.3800462   -0.020670241480
     99   S     591             4.8841679   -0.051503033370
     99   S     592             0.6984469    0.334627117400
     99   S     593             0.3169981    0.562106130100
     99   S     594             0.1511746    0.171299469700
 
    100   P     595            18.3494739    0.007924233646
    100   P     596             4.7851696    0.051441048250
    100   P     597             1.7121793    0.189840006000
    100   P     598             0.7157237    0.404986319100
    100   P     599             0.3272776    0.401236286100
    100   P     600             0.1547253    0.105185518900

 C         
 
    101   S     601            94.7710456   -0.004151277819
    101   S     602            17.3800462   -0.020670241480
    101   S     603             4.8841679   -0.051503033370
    101   S     604             0.6984469    0.334627117400
    101   S     605             0.3169981    0.562106130100
    101   S     606             0.1511746    0.171299469700
 
    102   P     607            18.3494739    0.007924233646
    102   P     608             4.7851696    0.051441048250
    102   P     609             1.7121793    0.189840006000
    102   P     610             0.7157237    0.404986319100
    102   P     611             0.3272776    0.401236286100
    102   P     612             0.1547253    0.105185518900

 C         
 
    103   S     613            94.7710456   -0.004151277819
    103   S     614            17.3800462   -0.020670241480
    103   S     615             4.8841679   -0.051503033370
    103   S     616             0.6984469    0.334627117400
    103   S     617             0.3169981    0.562106130100
    103   S     618             0.1511746    0.171299469700
 
    104   P     619            18.3494739    0.007924233646
    104   P     620             4.7851696    0.051441048250
    104   P     621             1.7121793    0.189840006000
    104   P     622             0.7157237    0.404986319100
    104   P     623             0.3272776    0.401236286100
    104   P     624             0.1547253    0.105185518900

 C         
 
    105   S     625            94.7710456   -0.004151277819
    105   S     626            17.3800462   -0.020670241480
    105   S     627             4.8841679   -0.051503033370
    105   S     628             0.6984469    0.334627117400
    105   S     629             0.3169981    0.562106130100
    105   S     630             0.1511746    0.171299469700
 
    106   P     631            18.3494739    0.007924233646
    106   P     632             4.7851696    0.051441048250
    106   P     633             1.7121793    0.189840006000
    106   P     634             0.7157237    0.404986319100
    106   P     635             0.3272776    0.401236286100
    106   P     636             0.1547253    0.105185518900

 C         
 
    107   S     637            94.7710456   -0.004151277819
    107   S     638            17.3800462   -0.020670241480
    107   S     639             4.8841679   -0.051503033370
    107   S     640             0.6984469    0.334627117400
    107   S     641             0.3169981    0.562106130100
    107   S     642             0.1511746    0.171299469700
 
    108   P     643            18.3494739    0.007924233646
    108   P     644             4.7851696    0.051441048250
    108   P     645             1.7121793    0.189840006000
    108   P     646             0.7157237    0.404986319100
    108   P     647             0.3272776    0.401236286100
    108   P     648             0.1547253    0.105185518900

 C         
 
    109   S     649            94.7710456   -0.004151277819
    109   S     650            17.3800462   -0.020670241480
    109   S     651             4.8841679   -0.051503033370
    109   S     652             0.6984469    0.334627117400
    109   S     653             0.3169981    0.562106130100
    109   S     654             0.1511746    0.171299469700
 
    110   P     655            18.3494739    0.007924233646
    110   P     656             4.7851696    0.051441048250
    110   P     657             1.7121793    0.189840006000
    110   P     658             0.7157237    0.404986319100
    110   P     659             0.3272776    0.401236286100
    110   P     660             0.1547253    0.105185518900

 C         
 
    111   S     661            94.7710456   -0.004151277819
    111   S     662            17.3800462   -0.020670241480
    111   S     663             4.8841679   -0.051503033370
    111   S     664             0.6984469    0.334627117400
    111   S     665             0.3169981    0.562106130100
    111   S     666             0.1511746    0.171299469700
 
    112   P     667            18.3494739    0.007924233646
    112   P     668             4.7851696    0.051441048250
    112   P     669             1.7121793    0.189840006000
    112   P     670             0.7157237    0.404986319100
    112   P     671             0.3272776    0.401236286100
    112   P     672             0.1547253    0.105185518900

 C         
 
    113   S     673            94.7710456   -0.004151277819
    113   S     674            17.3800462   -0.020670241480
    113   S     675             4.8841679   -0.051503033370
    113   S     676             0.6984469    0.334627117400
    113   S     677             0.3169981    0.562106130100
    113   S     678             0.1511746    0.171299469700
 
    114   P     679            18.3494739    0.007924233646
    114   P     680             4.7851696    0.051441048250
    114   P     681             1.7121793    0.189840006000
    114   P     682             0.7157237    0.404986319100
    114   P     683             0.3272776    0.401236286100
    114   P     684             0.1547253    0.105185518900

 C         
 
    115   S     685            94.7710456   -0.004151277819
    115   S     686            17.3800462   -0.020670241480
    115   S     687             4.8841679   -0.051503033370
    115   S     688             0.6984469    0.334627117400
    115   S     689             0.3169981    0.562106130100
    115   S     690             0.1511746    0.171299469700
 
    116   P     691            18.3494739    0.007924233646
    116   P     692             4.7851696    0.051441048250
    116   P     693             1.7121793    0.189840006000
    116   P     694             0.7157237    0.404986319100
    116   P     695             0.3272776    0.401236286100
    116   P     696             0.1547253    0.105185518900

 C         
 
    117   S     697            94.7710456   -0.004151277819
    117   S     698            17.3800462   -0.020670241480
    117   S     699             4.8841679   -0.051503033370
    117   S     700             0.6984469    0.334627117400
    117   S     701             0.3169981    0.562106130100
    117   S     702             0.1511746    0.171299469700
 
    118   P     703            18.3494739    0.007924233646
    118   P     704             4.7851696    0.051441048250
    118   P     705             1.7121793    0.189840006000
    118   P     706             0.7157237    0.404986319100
    118   P     707             0.3272776    0.401236286100
    118   P     708             0.1547253    0.105185518900

 C         
 
    119   S     709            94.7710456   -0.004151277819
    119   S     710            17.3800462   -0.020670241480
    119   S     711             4.8841679   -0.051503033370
    119   S     712             0.6984469    0.334627117400
    119   S     713             0.3169981    0.562106130100
    119   S     714             0.1511746    0.171299469700
 
    120   P     715            18.3494739    0.007924233646
    120   P     716             4.7851696    0.051441048250
    120   P     717             1.7121793    0.189840006000
    120   P     718             0.7157237    0.404986319100
    120   P     719             0.3272776    0.401236286100
    120   P     720             0.1547253    0.105185518900

 C         
 
    121   S     721            94.7710456   -0.004151277819
    121   S     722            17.3800462   -0.020670241480
    121   S     723             4.8841679   -0.051503033370
    121   S     724             0.6984469    0.334627117400
    121   S     725             0.3169981    0.562106130100
    121   S     726             0.1511746    0.171299469700
 
    122   P     727            18.3494739    0.007924233646
    122   P     728             4.7851696    0.051441048250
    122   P     729             1.7121793    0.189840006000
    122   P     730             0.7157237    0.404986319100
    122   P     731             0.3272776    0.401236286100
    122   P     732             0.1547253    0.105185518900

 C         
 
    123   S     733            94.7710456   -0.004151277819
    123   S     734            17.3800462   -0.020670241480
    123   S     735             4.8841679   -0.051503033370
    123   S     736             0.6984469    0.334627117400
    123   S     737             0.3169981    0.562106130100
    123   S     738             0.1511746    0.171299469700
 
    124   P     739            18.3494739    0.007924233646
    124   P     740             4.7851696    0.051441048250
    124   P     741             1.7121793    0.189840006000
    124   P     742             0.7157237    0.404986319100
    124   P     743             0.3272776    0.401236286100
    124   P     744             0.1547253    0.105185518900

 C         
 
    125   S     745            94.7710456   -0.004151277819
    125   S     746            17.3800462   -0.020670241480
    125   S     747             4.8841679   -0.051503033370
    125   S     748             0.6984469    0.334627117400
    125   S     749             0.3169981    0.562106130100
    125   S     750             0.1511746    0.171299469700
 
    126   P     751            18.3494739    0.007924233646
    126   P     752             4.7851696    0.051441048250
    126   P     753             1.7121793    0.189840006000
    126   P     754             0.7157237    0.404986319100
    126   P     755             0.3272776    0.401236286100
    126   P     756             0.1547253    0.105185518900

 C         
 
    127   S     757            94.7710456   -0.004151277819
    127   S     758            17.3800462   -0.020670241480
    127   S     759             4.8841679   -0.051503033370
    127   S     760             0.6984469    0.334627117400
    127   S     761             0.3169981    0.562106130100
    127   S     762             0.1511746    0.171299469700
 
    128   P     763            18.3494739    0.007924233646
    128   P     764             4.7851696    0.051441048250
    128   P     765             1.7121793    0.189840006000
    128   P     766             0.7157237    0.404986319100
    128   P     767             0.3272776    0.401236286100
    128   P     768             0.1547253    0.105185518900

 C         
 
    129   S     769            94.7710456   -0.004151277819
    129   S     770            17.3800462   -0.020670241480
    129   S     771             4.8841679   -0.051503033370
    129   S     772             0.6984469    0.334627117400
    129   S     773             0.3169981    0.562106130100
    129   S     774             0.1511746    0.171299469700
 
    130   P     775            18.3494739    0.007924233646
    130   P     776             4.7851696    0.051441048250
    130   P     777             1.7121793    0.189840006000
    130   P     778             0.7157237    0.404986319100
    130   P     779             0.3272776    0.401236286100
    130   P     780             0.1547253    0.105185518900

 C         
 
    131   S     781            94.7710456   -0.004151277819
    131   S     782            17.3800462   -0.020670241480
    131   S     783             4.8841679   -0.051503033370
    131   S     784             0.6984469    0.334627117400
    131   S     785             0.3169981    0.562106130100
    131   S     786             0.1511746    0.171299469700
 
    132   P     787            18.3494739    0.007924233646
    132   P     788             4.7851696    0.051441048250
    132   P     789             1.7121793    0.189840006000
    132   P     790             0.7157237    0.404986319100
    132   P     791             0.3272776    0.401236286100
    132   P     792             0.1547253    0.105185518900

 C         
 
    133   S     793            94.7710456   -0.004151277819
    133   S     794            17.3800462   -0.020670241480
    133   S     795             4.8841679   -0.051503033370
    133   S     796             0.6984469    0.334627117400
    133   S     797             0.3169981    0.562106130100
    133   S     798             0.1511746    0.171299469700
 
    134   P     799            18.3494739    0.007924233646
    134   P     800             4.7851696    0.051441048250
    134   P     801             1.7121793    0.189840006000
    134   P     802             0.7157237    0.404986319100
    134   P     803             0.3272776    0.401236286100
    134   P     804             0.1547253    0.105185518900

 C         
 
    135   S     805            94.7710456   -0.004151277819
    135   S     806            17.3800462   -0.020670241480
    135   S     807             4.8841679   -0.051503033370
    135   S     808             0.6984469    0.334627117400
    135   S     809             0.3169981    0.562106130100
    135   S     810             0.1511746    0.171299469700
 
    136   P     811            18.3494739    0.007924233646
    136   P     812             4.7851696    0.051441048250
    136   P     813             1.7121793    0.189840006000
    136   P     814             0.7157237    0.404986319100
    136   P     815             0.3272776    0.401236286100
    136   P     816             0.1547253    0.105185518900

 C         
 
    137   S     817            94.7710456   -0.004151277819
    137   S     818            17.3800462   -0.020670241480
    137   S     819             4.8841679   -0.051503033370
    137   S     820             0.6984469    0.334627117400
    137   S     821             0.3169981    0.562106130100
    137   S     822             0.1511746    0.171299469700
 
    138   P     823            18.3494739    0.007924233646
    138   P     824             4.7851696    0.051441048250
    138   P     825             1.7121793    0.189840006000
    138   P     826             0.7157237    0.404986319100
    138   P     827             0.3272776    0.401236286100
    138   P     828             0.1547253    0.105185518900

 C         
 
    139   S     829            94.7710456   -0.004151277819
    139   S     830            17.3800462   -0.020670241480
    139   S     831             4.8841679   -0.051503033370
    139   S     832             0.6984469    0.334627117400
    139   S     833             0.3169981    0.562106130100
    139   S     834             0.1511746    0.171299469700
 
    140   P     835            18.3494739    0.007924233646
    140   P     836             4.7851696    0.051441048250
    140   P     837             1.7121793    0.189840006000
    140   P     838             0.7157237    0.404986319100
    140   P     839             0.3272776    0.401236286100
    140   P     840             0.1547253    0.105185518900

 C         
 
    141   S     841            94.7710456   -0.004151277819
    141   S     842            17.3800462   -0.020670241480
    141   S     843             4.8841679   -0.051503033370
    141   S     844             0.6984469    0.334627117400
    141   S     845             0.3169981    0.562106130100
    141   S     846             0.1511746    0.171299469700
 
    142   P     847            18.3494739    0.007924233646
    142   P     848             4.7851696    0.051441048250
    142   P     849             1.7121793    0.189840006000
    142   P     850             0.7157237    0.404986319100
    142   P     851             0.3272776    0.401236286100
    142   P     852             0.1547253    0.105185518900

 C         
 
    143   S     853            94.7710456   -0.004151277819
    143   S     854            17.3800462   -0.020670241480
    143   S     855             4.8841679   -0.051503033370
    143   S     856             0.6984469    0.334627117400
    143   S     857             0.3169981    0.562106130100
    143   S     858             0.1511746    0.171299469700
 
    144   P     859            18.3494739    0.007924233646
    144   P     860             4.7851696    0.051441048250
    144   P     861             1.7121793    0.189840006000
    144   P     862             0.7157237    0.404986319100
    144   P     863             0.3272776    0.401236286100
    144   P     864             0.1547253    0.105185518900

 C         
 
    145   S     865            94.7710456   -0.004151277819
    145   S     866            17.3800462   -0.020670241480
    145   S     867             4.8841679   -0.051503033370
    145   S     868             0.6984469    0.334627117400
    145   S     869             0.3169981    0.562106130100
    145   S     870             0.1511746    0.171299469700
 
    146   P     871            18.3494739    0.007924233646
    146   P     872             4.7851696    0.051441048250
    146   P     873             1.7121793    0.189840006000
    146   P     874             0.7157237    0.404986319100
    146   P     875             0.3272776    0.401236286100
    146   P     876             0.1547253    0.105185518900

 C         
 
    147   S     877            94.7710456   -0.004151277819
    147   S     878            17.3800462   -0.020670241480
    147   S     879             4.8841679   -0.051503033370
    147   S     880             0.6984469    0.334627117400
    147   S     881             0.3169981    0.562106130100
    147   S     882             0.1511746    0.171299469700
 
    148   P     883            18.3494739    0.007924233646
    148   P     884             4.7851696    0.051441048250
    148   P     885             1.7121793    0.189840006000
    148   P     886             0.7157237    0.404986319100
    148   P     887             0.3272776    0.401236286100
    148   P     888             0.1547253    0.105185518900

 C         
 
    149   S     889            94.7710456   -0.004151277819
    149   S     890            17.3800462   -0.020670241480
    149   S     891             4.8841679   -0.051503033370
    149   S     892             0.6984469    0.334627117400
    149   S     893             0.3169981    0.562106130100
    149   S     894             0.1511746    0.171299469700
 
    150   P     895            18.3494739    0.007924233646
    150   P     896             4.7851696    0.051441048250
    150   P     897             1.7121793    0.189840006000
    150   P     898             0.7157237    0.404986319100
    150   P     899             0.3272776    0.401236286100
    150   P     900             0.1547253    0.105185518900

 C         
 
    151   S     901            94.7710456   -0.004151277819
    151   S     902            17.3800462   -0.020670241480
    151   S     903             4.8841679   -0.051503033370
    151   S     904             0.6984469    0.334627117400
    151   S     905             0.3169981    0.562106130100
    151   S     906             0.1511746    0.171299469700
 
    152   P     907            18.3494739    0.007924233646
    152   P     908             4.7851696    0.051441048250
    152   P     909             1.7121793    0.189840006000
    152   P     910             0.7157237    0.404986319100
    152   P     911             0.3272776    0.401236286100
    152   P     912             0.1547253    0.105185518900

 C         
 
    153   S     913            94.7710456   -0.004151277819
    153   S     914            17.3800462   -0.020670241480
    153   S     915             4.8841679   -0.051503033370
    153   S     916             0.6984469    0.334627117400
    153   S     917             0.3169981    0.562106130100
    153   S     918             0.1511746    0.171299469700
 
    154   P     919            18.3494739    0.007924233646
    154   P     920             4.7851696    0.051441048250
    154   P     921             1.7121793    0.189840006000
    154   P     922             0.7157237    0.404986319100
    154   P     923             0.3272776    0.401236286100
    154   P     924             0.1547253    0.105185518900

 C         
 
    155   S     925            94.7710456   -0.004151277819
    155   S     926            17.3800462   -0.020670241480
    155   S     927             4.8841679   -0.051503033370
    155   S     928             0.6984469    0.334627117400
    155   S     929             0.3169981    0.562106130100
    155   S     930             0.1511746    0.171299469700
 
    156   P     931            18.3494739    0.007924233646
    156   P     932             4.7851696    0.051441048250
    156   P     933             1.7121793    0.189840006000
    156   P     934             0.7157237    0.404986319100
    156   P     935             0.3272776    0.401236286100
    156   P     936             0.1547253    0.105185518900

 C         
 
    157   S     937            94.7710456   -0.004151277819
    157   S     938            17.3800462   -0.020670241480
    157   S     939             4.8841679   -0.051503033370
    157   S     940             0.6984469    0.334627117400
    157   S     941             0.3169981    0.562106130100
    157   S     942             0.1511746    0.171299469700
 
    158   P     943            18.3494739    0.007924233646
    158   P     944             4.7851696    0.051441048250
    158   P     945             1.7121793    0.189840006000
    158   P     946             0.7157237    0.404986319100
    158   P     947             0.3272776    0.401236286100
    158   P     948             0.1547253    0.105185518900

 C         
 
    159   S     949            94.7710456   -0.004151277819
    159   S     950            17.3800462   -0.020670241480
    159   S     951             4.8841679   -0.051503033370
    159   S     952             0.6984469    0.334627117400
    159   S     953             0.3169981    0.562106130100
    159   S     954             0.1511746    0.171299469700
 
    160   P     955            18.3494739    0.007924233646
    160   P     956             4.7851696    0.051441048250
    160   P     957             1.7121793    0.189840006000
    160   P     958             0.7157237    0.404986319100
    160   P     959             0.3272776    0.401236286100
    160   P     960             0.1547253    0.105185518900

 C         
 
    161   S     961            94.7710456   -0.004151277819
    161   S     962            17.3800462   -0.020670241480
    161   S     963             4.8841679   -0.051503033370
    161   S     964             0.6984469    0.334627117400
    161   S     965             0.3169981    0.562106130100
    161   S     966             0.1511746    0.171299469700
 
    162   P     967            18.3494739    0.007924233646
    162   P     968             4.7851696    0.051441048250
    162   P     969             1.7121793    0.189840006000
    162   P     970             0.7157237    0.404986319100
    162   P     971             0.3272776    0.401236286100
    162   P     972             0.1547253    0.105185518900

 C         
 
    163   S     973            94.7710456   -0.004151277819
    163   S     974            17.3800462   -0.020670241480
    163   S     975             4.8841679   -0.051503033370
    163   S     976             0.6984469    0.334627117400
    163   S     977             0.3169981    0.562106130100
    163   S     978             0.1511746    0.171299469700
 
    164   P     979            18.3494739    0.007924233646
    164   P     980             4.7851696    0.051441048250
    164   P     981             1.7121793    0.189840006000
    164   P     982             0.7157237    0.404986319100
    164   P     983             0.3272776    0.401236286100
    164   P     984             0.1547253    0.105185518900

 C         
 
    165   S     985            94.7710456   -0.004151277819
    165   S     986            17.3800462   -0.020670241480
    165   S     987             4.8841679   -0.051503033370
    165   S     988             0.6984469    0.334627117400
    165   S     989             0.3169981    0.562106130100
    165   S     990             0.1511746    0.171299469700
 
    166   P     991            18.3494739    0.007924233646
    166   P     992             4.7851696    0.051441048250
    166   P     993             1.7121793    0.189840006000
    166   P     994             0.7157237    0.404986319100
    166   P     995             0.3272776    0.401236286100
    166   P     996             0.1547253    0.105185518900

 C         
 
    167   S     997            94.7710456   -0.004151277819
    167   S     998            17.3800462   -0.020670241480
    167   S     999             4.8841679   -0.051503033370
    167   S    1000             0.6984469    0.334627117400
    167   S    1001             0.3169981    0.562106130100
    167   S    1002             0.1511746    0.171299469700
 
    168   P    1003            18.3494739    0.007924233646
    168   P    1004             4.7851696    0.051441048250
    168   P    1005             1.7121793    0.189840006000
    168   P    1006             0.7157237    0.404986319100
    168   P    1007             0.3272776    0.401236286100
    168   P    1008             0.1547253    0.105185518900

 C         
 
[...]
          15         C             -0.0977          4.0977
          16         C             -0.0963          4.0963
          17         C             -0.0487          4.0487
          18         C             -0.0481          4.0481
          19         C             -0.0481          4.0481
          20         C             -0.0509          4.0509
          21         C              0.2026          3.7974
          22         N             -0.2730          5.2730
          23         H              0.1159          0.8841
          24         H              0.1158          0.8842
          25         H              0.1312          0.8688
          26         H              0.1312          0.8688
          27         B              0.3123          2.6877
          28         C              0.2043          3.7957
          29         N             -0.2460          5.2460
          30         C             -0.0974          4.0974
          31         C             -0.0962          4.0962
          32         C             -0.0500          4.0500
          33         C             -0.0479          4.0479
          34         C             -0.0488          4.0488
          35         C             -0.0506          4.0506
          36         C              0.1970          3.8030
          37         N             -0.2692          5.2692
          38         H              0.1156          0.8844
          39         H              0.1155          0.8845
          40         H              0.1309          0.8691
          41         H              0.1308          0.8692
          42         C              0.1998          3.8002
          43         N             -0.2433          5.2433
          44         CL            -0.2827          7.2827
          45         C              0.0000          4.0000
          46         C             -0.0002          4.0002
          47         C             -0.0015          4.0015
          48         C             -0.0001          4.0001
          49         C              0.0000          4.0000
          50         C              0.0001          3.9999
          51         C              0.0001          3.9999
          52         C             -0.0004          4.0004
          53         C             -0.0008          4.0008
          54         C             -0.0034          4.0034
          55         C              0.0057          3.9943
          56         C              0.0034          3.9966
          57         C              0.0078          3.9922
          58         C             -0.0014          4.0014
          59         C             -0.0013          4.0013
          60         C             -0.0010          4.0010
          61         C             -0.0009          4.0009
          62         C             -0.0020          4.0020
          63         C              0.0091          3.9909
          64         C             -0.0062          4.0062
          65         C             -0.0074          4.0074
          66         C             -0.0060          4.0060
          67         C              0.0041          3.9959
          68         C              0.0008          3.9992
          69         C             -0.0004          4.0004
          70         C             -0.0012          4.0012
          71         C              0.0004          3.9996
          72         C             -0.0002          4.0002
          73         C              0.0004          3.9996
          74         C              0.0001          3.9999
          75         C              0.0002          3.9998
          76         C              0.0003          3.9997
          77         C             -0.0001          4.0001
          78         C              0.0005          3.9995
          79         C             -0.0012          4.0012
          80         C              0.0013          3.9987
          81         C              0.0010          3.9990
          82         C              0.0056          3.9944
          83         C             -0.0070          4.0070
          84         C              0.0050          3.9950
          85         C              0.0024          3.9976
          86         C             -0.0011          4.0011
          87         C             -0.0004          4.0004
          88         C              0.0001          3.9999
          89         C              0.0000          4.0000
          90         C             -0.0003          4.0003
          91         C             -0.0007          4.0007
          92         C             -0.0034          4.0034
          93         C             -0.0005          4.0005
          94         C             -0.0011          4.0011
          95         C             -0.0004          4.0004
          96         C              0.0002          3.9998
          97         C              0.0001          3.9999
          98         C              0.0001          3.9999
          99         C              0.0003          3.9997
         100         C             -0.0001          4.0001
         101         C              0.0002          3.9998
         102         C             -0.0000          4.0000
         103         C              0.0002          3.9998
         104         C              0.0002          3.9998

          ---------------------
          ELECTROSTATIC MOMENTS
          ---------------------

 POINT   1           X           Y           Z (ANGS)      CHARGE
                 0.000000    0.000000    0.000000       -0.00 (A.U.)
         DX          DY          DZ         /D/  (DEBYE)
     1.415140    6.103862    1.375933    6.415056
 ...... END OF PROPERTY EVALUATION ......
 STEP CPU TIME =     0.00 TOTAL CPU TIME =        1.3 (    0.0 MIN)
 TOTAL WALL CLOCK TIME=        2.4 SECONDS, CPU UTILIZATION IS  55.04%

                         ----------------------
                         GRADIENT OF THE ENERGY
                         ----------------------

 UNITS ARE HARTREE/BOHR    E'X               E'Y               E'Z 
    1 C                0.013076745       0.002213940       0.003822335
    2 C                0.007512815       0.006778846      -0.009346003
    3 C               -0.001995191       0.004423539      -0.010116700
    4 C               -0.014378910      -0.001102846      -0.005880664
    5 C                0.006180840      -0.002294142       0.009096807
    6 C               -0.006842732      -0.007306894       0.011938390
    7 C                0.006866071       0.000472143      -0.002021694
    8 N                0.007392580      -0.002790921      -0.004045080
    9 H                0.000239693       0.000065171       0.000249890
   10 H                0.000018962       0.000240948      -0.000260982
   11 H               -0.000379328       0.000176199      -0.000222465
   12 H               -0.000091358      -0.000070335       0.000453865
   13 C                0.006450907       0.000610199      -0.003272733
   14 N                0.001475716       0.000670168       0.001121517
   15 C               -0.001769815       0.009170960      -0.010209632
   16 C               -0.010892145       0.008330557       0.001882874
   17 C               -0.007866314       0.001292133       0.007951156
   18 C                0.000592975      -0.009238147       0.012581613
   19 C                0.005385898       0.002544652      -0.009512448
   20 C                0.012787696      -0.008130382      -0.003705752
   21 C               -0.004683770       0.003669843      -0.004163048
   22 N               -0.007123411       0.000806717      -0.005279074
   23 H                0.000135820       0.000225192      -0.000241319
   24 H               -0.000209117       0.000190908       0.000214570
   25 H               -0.000020885      -0.000075995       0.000462428
   26 H                0.000452614      -0.000025564      -0.000147387
   27 B               -0.002173384      -0.009212524      -0.002149230
   28 C               -0.005446782       0.003723956      -0.002912280
   29 N                0.000470880       0.001310024      -0.001167164
   30 C               -0.007148997       0.005456650       0.010405824
   31 C                0.007225219       0.001687681       0.011602753
   32 C                0.010606824      -0.001910553       0.003082730
   33 C                0.009910556      -0.005440708      -0.010651546
   34 C               -0.010520078       0.003644037       0.001281906
   35 C               -0.009501116      -0.000287563      -0.012277629
   36 C               -0.001313580      -0.000102651       0.007189636
   37 N               -0.001536521      -0.003460461       0.008006890
   38 H               -0.000267170       0.000218511       0.000099924
   39 H                0.000311603       0.000063806       0.000155074
   40 H                0.000411772      -0.000031090      -0.000228542
   41 H               -0.000334931       0.000169963      -0.000287099
   42 C               -0.000054758      -0.000328395       0.007271550
   43 N               -0.001145625       0.001216100       0.000916719
   44 CL               0.000207750       0.000882749       0.000188940
   45 C                0.010983377      -0.006794788       0.003548754
   46 C                0.012853045       0.000000649       0.003754206
   47 C                0.009328436       0.003109085       0.009005536
   48 C                0.005373167      -0.001801980       0.012169385
   49 C                0.006370053      -0.007956973       0.008777707
   50 C                0.005850892       0.011720470      -0.002977763
   51 C                0.004998108       0.011866894       0.004131701
   52 C                0.008260522      -0.008225826      -0.006969416
   53 C                0.008033598      -0.002066371      -0.010514396
   54 C                0.011286615       0.002644479      -0.006666078
   55 C               -0.001996378      -0.013276960       0.003188517
   56 C               -0.001105110      -0.013418405      -0.003799907
   57 C                0.005574934      -0.011422497      -0.005279431
   58 C               -0.005565752      -0.001420009       0.012207590
   59 C               -0.008739587      -0.006233201       0.008223224
   60 C               -0.003917939      -0.011250495       0.006668382
   61 C                0.002295353      -0.009251810       0.009583181
   62 C                0.001167689      -0.003292363       0.013033366
   63 C               -0.009253780      -0.007459113      -0.007059682
   64 C               -0.012746736      -0.003839104      -0.001841069
   65 C                0.009103647      -0.009849694       0.000839121
   66 C                0.004075926      -0.010574501       0.006924882
   67 C               -0.002697864      -0.001306840      -0.013135967
   68 C               -0.006483473      -0.006794069      -0.009985195
   69 C                0.013441912      -0.000242310      -0.000728704
   70 C                0.011480943      -0.006890315      -0.000727041
   71 C               -0.002320740       0.008998232      -0.009646456
   72 C               -0.001288366       0.002871927      -0.013049006
   73 C                0.009301350       0.006852203       0.006822797
   74 C                0.012884463       0.003722702       0.001508975
   75 C               -0.009195098       0.009805873      -0.001228063
   76 C               -0.005839808       0.011030261       0.004967513
   77 C                0.005484705       0.001002881      -0.012224345
   78 C                0.008656025       0.005963098      -0.008284354
   79 C                0.003842305       0.010966894      -0.006627532
   80 C               -0.002254647      -0.011475121      -0.007238712
   81 C                0.004243575      -0.009737841      -0.008652550
   82 C                0.004514433      -0.003391558      -0.012312304
   83 C               -0.010258951      -0.006544349       0.005154614
   84 C               -0.005736214      -0.012213171       0.002732457
   85 C               -0.005001504      -0.012312850      -0.004315277
   86 C               -0.008233501       0.007955041       0.006830760
   87 C               -0.011549476       0.006732995       0.000713200
   88 C               -0.013390061      -0.000078504       0.000532331
   89 C               -0.011304547      -0.003084116       0.006592929
   90 C               -0.008149099       0.001930064       0.010497395
   91 C               -0.005355494       0.001612230      -0.012162537
   92 C               -0.006564424       0.007568266      -0.008857685
   93 C               -0.011140133       0.006547251      -0.003744412
   94 C               -0.012865089      -0.000171103      -0.003731284
   95 C               -0.009461575      -0.003348308      -0.009152268
   96 C                0.000902483       0.012999217       0.003626163
   97 C                0.001718206       0.012847970      -0.003489153
   98 C               -0.004486333       0.010942761      -0.006475756
   99 C                0.002422792       0.001216563       0.013214983
  100 C                0.006439463       0.006152368       0.010030024
  101 C                0.002189347       0.011199206       0.007274924
  102 C               -0.004527363       0.009169945       0.008670836
  103 C               -0.004401579       0.003096108       0.012375287
  104 C                0.010735234       0.006752492      -0.004603319

                   MAXIMUM GRADIENT =    0.014378910
                       RMS GRADIENT =    0.006920995
  $VIB   
          IVIB=   0 IATOM=   0 ICOORD=   0 E=     -454.5007554809
  1.307674489E-02 2.213939728E-03 3.822335478E-03 7.512814830E-03 6.778846466E-03
 -9.346002825E-03-1.995191417E-03 4.423538777E-03-1.011669951E-02-1.437891040E-02
 -1.102845546E-03-5.880663705E-03 6.180839860E-03-2.294142346E-03 9.096806888E-03
 -6.842732338E-03-7.306893541E-03 1.193838951E-02 6.866071128E-03 4.721433073E-04
 -2.021693568E-03 7.392580138E-03-2.790920629E-03-4.045080207E-03 2.396925536E-04
  6.517130920E-05 2.498898155E-04 1.896200148E-05 2.409480225E-04-2.609816919E-04
 -3.793281707E-04 1.761985358E-04-2.224649919E-04-9.135759355E-05-7.033510405E-05
  4.538646162E-04 6.450907334E-03 6.101987044E-04-3.272732818E-03 1.475715808E-03
  6.701675674E-04 1.121517005E-03-1.769815172E-03 9.170959918E-03-1.020963245E-02
 -1.089214547E-02 8.330557427E-03 1.882873990E-03-7.866313832E-03 1.292132526E-03
  7.951155668E-03 5.929752523E-04-9.238147434E-03 1.258161332E-02 5.385897664E-03
  2.544651691E-03-9.512447987E-03 1.278769609E-02-8.130382025E-03-3.705751973E-03
 -4.683769555E-03 3.669843293E-03-4.163047620E-03-7.123411113E-03 8.067171774E-04
 -5.279073517E-03 1.358204118E-04 2.251922965E-04-2.413185949E-04-2.091166913E-04
  1.909075174E-04 2.145697923E-04-2.088501466E-05-7.599476516E-05 4.624282575E-04
  4.526136761E-04-2.556371257E-05-1.473869273E-04-2.173383680E-03-9.212524352E-03
 -2.149230335E-03-5.446781814E-03 3.723955872E-03-2.912279969E-03 4.708796911E-04
  1.310024082E-03-1.167163974E-03-7.148996827E-03 5.456649944E-03 1.040582437E-02
  7.225218736E-03 1.687680849E-03 1.160275281E-02 1.060682397E-02-1.910553078E-03
  3.082730267E-03 9.910556304E-03-5.440708235E-03-1.065154626E-02-1.052007838E-02
  3.644037111E-03 1.281906080E-03-9.501116337E-03-2.875629281E-04-1.227762896E-02
 -1.313580173E-03-1.026505419E-04 7.189636052E-03-1.536520747E-03-3.460461063E-03
  8.006890202E-03-2.671697360E-04 2.185111110E-04 9.992393751E-05 3.116031933E-04
  6.380581928E-05 1.550738220E-04 4.117717894E-04-3.108997255E-05-2.285424381E-04
 -3.349306679E-04 1.699625509E-04-2.870989019E-04-5.475750870E-05-3.283946446E-04
  7.271550139E-03-1.145624524E-03 1.216099861E-03 9.167185263E-04 2.077499874E-04
  8.827493185E-04 1.889404911E-04 1.098337697E-02-6.794787766E-03 3.548754210E-03
  1.285304472E-02 6.488908099E-07 3.754206348E-03 9.328435824E-03 3.109084962E-03
  9.005536358E-03 5.373166957E-03-1.801980265E-03 1.216938522E-02 6.370052642E-03
 -7.956973461E-03 8.777707158E-03 5.850892128E-03 1.172046990E-02-2.977762900E-03
  4.998108203E-03 1.186689410E-02 4.131700928E-03 8.260521904E-03-8.225825645E-03
 -6.969416087E-03 8.033598446E-03-2.066370711E-03-1.051439590E-02 1.128661480E-02
  2.644479468E-03-6.666077890E-03-1.996377812E-03-1.327695992E-02 3.188516794E-03
 -1.105109791E-03-1.341840528E-02-3.799907276E-03 5.574934074E-03-1.142249691E-02
 -5.279430788E-03-5.565752038E-03-1.420008783E-03 1.220759035E-02-8.739586675E-03
 -6.233201251E-03 8.223224451E-03-3.917939394E-03-1.125049519E-02 6.668381637E-03
  2.295353335E-03-9.251810157E-03 9.583180712E-03 1.167688753E-03-3.292362805E-03
  1.303336637E-02-9.253779549E-03-7.459113057E-03-7.059682037E-03-1.274673616E-02
 -3.839104441E-03-1.841068960E-03 9.103647474E-03-9.849693531E-03 8.391209275E-04
  4.075925701E-03-1.057450089E-02 6.924882061E-03-2.697864169E-03-1.306840404E-03
 -1.313596690E-02-6.483473369E-03-6.794068566E-03-9.985195072E-03 1.344191199E-02
 -2.423096188E-04-7.287037054E-04 1.148094332E-02-6.890314766E-03-7.270410324E-04
 -2.320739888E-03 8.998231785E-03-9.646456331E-03-1.288366047E-03 2.871926890E-03
 -1.304900609E-02 9.301350470E-03 6.852203252E-03 6.822797438E-03 1.288446303E-02
  3.722701557E-03 1.508975197E-03-9.195097846E-03 9.805872813E-03-1.228063171E-03
 -5.839807743E-03 1.103026090E-02 4.967512928E-03 5.484705056E-03 1.002881491E-03
 -1.222434511E-02 8.656024553E-03 5.963098319E-03-8.284353679E-03 3.842305466E-03
  1.096689372E-02-6.627532026E-03-2.254646602E-03-1.147512080E-02-7.238712115E-03
  4.243574749E-03-9.737840722E-03-8.652549713E-03 4.514432815E-03-3.391558231E-03
 -1.231230359E-02-1.025895081E-02-6.544349405E-03 5.154614060E-03-5.736214474E-03
 -1.221317063E-02 2.732457496E-03-5.001503861E-03-1.231285019E-02-4.315277060E-03
 -8.233500649E-03 7.955040652E-03 6.830759642E-03-1.154947613E-02 6.732994776E-03
  7.131997146E-04-1.339006109E-02-7.850427906E-05 5.323307491E-04-1.130454742E-02
 -3.084116259E-03 6.592928512E-03-8.149098611E-03 1.930064197E-03 1.049739478E-02
 -5.355493773E-03 1.612229702E-03-1.216253731E-02-6.564423949E-03 7.568266330E-03
 -8.857684833E-03-1.114013270E-02 6.547251286E-03-3.744412037E-03-1.286508875E-02
 -1.711031127E-04-3.731284310E-03-9.461574522E-03-3.348308209E-03-9.152267674E-03
  9.024834544E-04 1.299921689E-02 3.626162876E-03 1.718206454E-03 1.284796995E-02
 -3.489152516E-03-4.486332684E-03 1.094276106E-02-6.475756465E-03 2.422792433E-03
  1.216562618E-03 1.321498286E-02 6.439462667E-03 6.152367784E-03 1.003002427E-02
  2.189347226E-03 1.119920559E-02 7.274924042E-03-4.527362656E-03 9.169945259E-03
  8.670835512E-03-4.401578642E-03 3.096108192E-03 1.237528666E-02 1.073523403E-02
  6.752492061E-03-4.603319486E-03
  1.415140351E+00 6.103861936E+00 1.375932983E+00

..... END OF SINGLE POINT GRADIENT .....
 STEP CPU TIME =     0.08 TOTAL CPU TIME =        1.4 (    0.0 MIN)
 TOTAL WALL CLOCK TIME=        2.5 SECONDS, CPU UTILIZATION IS  54.94%
               1448630  WORDS OF DYNAMIC MEMORY USED
 EXECUTION OF GAMESS TERMINATED NORMALLY Sun Feb 19 01:17:32 2017
 DDI: 263640 bytes (0.3 MB / 0 MWords) used by master data server.

 ----------------------------------------
 CPU timing information for all processes
 ========================================
 0: 1.277 + 0.120 = 1.398
 ----------------------------------------
 ddikick.x: exited gracefully.
----- accounting info -----
Files used on the master node boo.mosk.tytlabs.co.jp were:
-rw-rw-r-- 1 e1667 e1667  2361530 Feb 19 01:17 /home/e1667/work/namd/Pc_C60/cooling/rm1/scr/SubPc-C60_wrk.dat
-rw-r--r-- 1 e1667 e1667     6390 Feb 19 01:17 /home/e1667/work/namd/Pc_C60/cooling/rm1/scr/SubPc-C60_wrk.F05
-rw-rw-r-- 1 e1667 e1667        0 Feb 19 01:17 /home/e1667/work/namd/Pc_C60/cooling/rm1/scr/SubPc-C60_wrk.F08
-rw-rw-r-- 1 e1667 e1667 13218880 Feb 19 01:17 /home/e1667/work/namd/Pc_C60/cooling/rm1/scr/SubPc-C60_wrk.F10
Sun Feb 19 01:17:35 JST 2017
0.119u 0.035s 0:05.83 2.4%	0+0k 0+32io 0pf+0w
